;
;   File /dfs9/dmobley-lab/swapnilw/pdgfra_project/residue_deletion/example.top  was generated
;   By user: swapnilw (2327909)
;   On host:hpc3-14-02 
;   At date:Sat. May  6 12:38:58 2026 
;
;   This is a standalone topology file
;
;   Created by:
;   ParmEd:       ipykernel_launcher.py, VERSION4.1.0 
;   Executable:   ipykernel_launcher.py
;   Library dir:  /usr/local/gromacs/share/gromacs/top
;   Command line:
;     /data/homezvol1/swapnilw/.conda/envs/simple_py38env/lib/python3.8/site-packages/ipykernel_launcher.py -f /data/homezvol1/swapnilw/.local/share/jupyter/runtime/kernel-ee59b710-14f7-4439-9058-a9229ca2199d.json
;

[ defaults ]
; nbfunc        comb-rule       gen-pairs       fudgeLJ fudgeQQ
1               2               no              1            0.83333333  

[ atomtypes ]
; name    at.num    mass    charge ptype  sigma      epsilon
N1             7  14.006720  0.00000000  A     0.32499985        0.71128
H1             1   1.007947  0.00000000  A     0.10690785      0.0656888
C1             6  12.010780  0.00000000  A     0.33996695      0.4577296
H2             1   1.007947  0.00000000  A     0.19599772      0.0656888
C2             6  12.010780  0.00000000  A     0.33996695       0.359824
O1             8  15.999430  0.00000000  A     0.29599219        0.87864
H3             1   1.007947  0.00000000  A      0.2471353      0.0656888
H4             1   1.007947  0.00000000  A     0.26495328      0.0656888
O2             8  15.999430  0.00000000  A     0.31507524       0.635968
H5             1   1.007947  0.00000000  A              1              0
Na1           11  22.989769  0.00000000  A     0.24392807     0.36584603
Cl1           17  35.453200  0.00000000  A      0.4477657     0.14891274


[ moleculetype ]
; Name            nrexcl
system1          3

[ atoms ]
;   nr       type  resnr residue  atom   cgnr    charge       mass  typeB    chargeB      massB
; residue    1 GLY rtp GLY q 1.0
    1         N1      1    GLY      N      1 0.29430000  14.006720   ; qtot 0.294300
    2         H1      1    GLY      H      2 0.16420000   1.007947   ; qtot 0.458500
    3         H1      1    GLY     H2      3 0.16420000   1.007947   ; qtot 0.622700
    4         H1      1    GLY     H3      4 0.16420000   1.007947   ; qtot 0.786900
    5         C1      1    GLY     CA      5 -0.01000000  12.010780   ; qtot 0.776900
    6         H2      1    GLY    HA2      6 0.08950000   1.007947   ; qtot 0.866400
    7         H2      1    GLY    HA3      7 0.08950000   1.007947   ; qtot 0.955900
    8         C2      1    GLY      C      8 0.61630000  12.010780   ; qtot 1.572200
    9         O1      1    GLY      O      9 -0.57220000  15.999430   ; qtot 1.000000
; residue    2 ALA rtp ALA q 0.0
   10         N1      2    ALA      N     10 -0.41570000  14.006720   ; qtot 0.584300
   11         H1      2    ALA      H     11 0.27190000   1.007947   ; qtot 0.856200
   12         C1      2    ALA     CA     12 0.03370000  12.010780   ; qtot 0.889900
   13         H3      2    ALA     HA     13 0.08230000   1.007947   ; qtot 0.972200
   14         C2      2    ALA      C     14 0.59730000  12.010780   ; qtot 1.569500
   15         O1      2    ALA      O     15 -0.56790000  15.999430   ; qtot 1.001600
   16         C1      2    ALA     CB     16 -0.18250000  12.010780   ; qtot 0.819100
   17         H4      2    ALA    HB1     17 0.06030000   1.007947   ; qtot 0.879400
   18         H4      2    ALA    HB2     18 0.06030000   1.007947   ; qtot 0.939700
   19         H4      2    ALA    HB3     19 0.06030000   1.007947   ; qtot 1.000000
; residue    3 GLY rtp GLY q -1.0
   20         N1      3    GLY      N     20 -0.38210000  14.006720   ; qtot 0.617900
   21         H1      3    GLY      H     21 0.26810000   1.007947   ; qtot 0.886000
   22         C1      3    GLY     CA     22 -0.24930000  12.010780   ; qtot 0.636700
   23         H3      3    GLY    HA2     23 0.10560000   1.007947   ; qtot 0.742300
   24         H3      3    GLY    HA3     24 0.10560000   1.007947   ; qtot 0.847900
   25         C2      3    GLY      C     25 0.72310000  12.010780   ; qtot 1.571000
   26         O1      3    GLY      O     26 -0.78550000  15.999430   ; qtot 0.785500
   27         O1      3    GLY    OXT     27 -0.78550000  15.999430   ; qtot 0.000000

[ bonds ]
;    ai     aj funct         c0         c1         c2         c3
      1      2     1   0.10100 363171.200000
      1      3     1   0.10100 363171.200000
      1      4     1   0.10100 363171.200000
      5      6     1   0.10900 284512.000000
      5      7     1   0.10900 284512.000000
     10     11     1   0.10100 363171.200000
     12     13     1   0.10900 284512.000000
     16     17     1   0.10900 284512.000000
     16     18     1   0.10900 284512.000000
     16     19     1   0.10900 284512.000000
     20     21     1   0.10100 363171.200000
     22     23     1   0.10900 284512.000000
     22     24     1   0.10900 284512.000000
      8      5     1   0.15220 265265.600000
      8      9     1   0.12290 476976.000000
      5      1     1   0.14710 307105.600000
      8     10     1   0.13350 410032.000000
     14     12     1   0.15220 265265.600000
     14     15     1   0.12290 476976.000000
     12     16     1   0.15260 259408.000000
     12     10     1   0.14490 282001.600000
     14     20     1   0.13350 410032.000000
     25     22     1   0.15220 265265.600000
     25     26     1   0.12500 548940.800000
     25     27     1   0.12500 548940.800000
     22     20     1   0.14490 282001.600000

[ pairs ]
;    ai     aj funct         c0         c1         c2         c3
      2      6     1 0.151452782 0.032844400
      3      6     1 0.151452782 0.032844400
      4      6     1 0.151452782 0.032844400
      2      7     1 0.151452782 0.032844400
      3      7     1 0.151452782 0.032844400
      4      7     1 0.151452782 0.032844400
      2      8     1 0.223437399 0.076870682
      3      8     1 0.223437399 0.076870682
      4      8     1 0.223437399 0.076870682
      1      9     1 0.310496021 0.395271761
      6      9     1 0.245994954 0.120121613
      7      9     1 0.245994954 0.120121613
      1     10     1 0.324999852 0.355640000
      6     10     1 0.260498785 0.108077668
      7     10     1 0.260498785 0.108077668
      5     11     1 0.223437399 0.086700214
      9     11     1 0.201450018 0.120121613
      5     12     1 0.339966951 0.228864800
      9     12     1 0.317979570 0.317088133
      8     13     1 0.293551128 0.076870682
     11     13     1 0.177021575 0.032844400
      8     14     1 0.339966951 0.179912000
     11     14     1 0.223437399 0.076870682
     10     15     1 0.310496021 0.395271761
     13     15     1 0.271563747 0.120121613
      8     16     1 0.339966951 0.202917530
     11     16     1 0.223437399 0.086700214
     15     16     1 0.317979570 0.317088133
     10     17     1 0.294976566 0.108077668
     13     17     1 0.256044292 0.032844400
     14     17     1 0.302460115 0.076870682
     10     18     1 0.294976566 0.108077668
     13     18     1 0.256044292 0.032844400
     14     18     1 0.302460115 0.076870682
     10     19     1 0.294976566 0.108077668
     13     19     1 0.256044292 0.032844400
     14     19     1 0.302460115 0.076870682
     10     20     1 0.324999852 0.355640000
     13     20     1 0.286067578 0.108077668
     16     20     1 0.332483402 0.285295421
     12     21     1 0.223437399 0.086700214
     15     21     1 0.201450018 0.120121613
     12     22     1 0.339966951 0.228864800
     15     22     1 0.317979570 0.317088133
     14     23     1 0.293551128 0.076870682
     21     23     1 0.177021575 0.032844400
     14     24     1 0.293551128 0.076870682
     21     24     1 0.177021575 0.032844400
     14     25     1 0.339966951 0.179912000
     21     25     1 0.223437399 0.076870682
     20     26     1 0.310496021 0.395271761
     23     26     1 0.271563747 0.120121613
     24     26     1 0.271563747 0.120121613
     20     27     1 0.310496021 0.395271761
     23     27     1 0.271563747 0.120121613
     24     27     1 0.271563747 0.120121613

[ angles ]
;    ai     aj     ak funct         c0         c1         c2         c3
      1      5      6     1   109.5000000 418.400000
      1      5      7     1   109.5000000 418.400000
      1      5      8     1   111.2000000 669.440000
      2      1      3     1   109.5000000 292.880000
      2      1      4     1   109.5000000 292.880000
      2      1      5     1   109.5000000 418.400000
      3      1      4     1   109.5000000 292.880000
      3      1      5     1   109.5000000 418.400000
      4      1      5     1   109.5000000 418.400000
      5      8      9     1   120.4000000 669.440000
      5      8     10     1   116.6000000 585.760000
      6      5      7     1   109.5000000 292.880000
      6      5      8     1   109.5000000 418.400000
      7      5      8     1   109.5000000 418.400000
      8     10     11     1   120.0000000 418.400000
      8     10     12     1   121.9000000 418.400000
      9      8     10     1   122.9000000 669.440000
     10     12     13     1   109.5000000 418.400000
     10     12     14     1   110.1000000 527.184000
     10     12     16     1   109.7000000 669.440000
     11     10     12     1   118.0400000 418.400000
     12     14     15     1   120.4000000 669.440000
     12     14     20     1   116.6000000 585.760000
     12     16     17     1   109.5000000 418.400000
     12     16     18     1   109.5000000 418.400000
     12     16     19     1   109.5000000 418.400000
     13     12     14     1   109.5000000 418.400000
     13     12     16     1   109.5000000 418.400000
     14     12     16     1   111.1000000 527.184000
     14     20     21     1   120.0000000 418.400000
     14     20     22     1   121.9000000 418.400000
     15     14     20     1   122.9000000 669.440000
     17     16     18     1   109.5000000 292.880000
     17     16     19     1   109.5000000 292.880000
     18     16     19     1   109.5000000 292.880000
     20     22     23     1   109.5000000 418.400000
     20     22     24     1   109.5000000 418.400000
     20     22     25     1   110.1000000 527.184000
     21     20     22     1   118.0400000 418.400000
     22     25     26     1   117.0000000 585.760000
     22     25     27     1   117.0000000 585.760000
     23     22     24     1   109.5000000 292.880000
     23     22     25     1   109.5000000 418.400000
     24     22     25     1   109.5000000 418.400000
     26     25     27     1   126.0000000 669.440000

[ dihedrals ]
;    ai     aj     ak     al funct         c0         c1         c2         c3         c4         c5
      2      1      5      6     1  0.0000000  0.6508444  3
      2      1      5      7     1  0.0000000  0.6508444  3
      2      1      5      8     1  0.0000000  0.6508444  3
      3      1      5      6     1  0.0000000  0.6508444  3
      3      1      5      7     1  0.0000000  0.6508444  3
      3      1      5      8     1  0.0000000  0.6508444  3
      4      1      5      6     1  0.0000000  0.6508444  3
      4      1      5      7     1  0.0000000  0.6508444  3
      4      1      5      8     1  0.0000000  0.6508444  3
      5      8     10     11     1  180.0000000  10.4600000  2
      5      8     10     12     1  180.0000000  10.4600000  2
      8     10     12     14     1  0.0000000  1.7572800  3
      8     10     12     14     1  0.0000000  1.1296800  2
      8     10     12     16     1  0.0000000  3.3472000  3
      8     10     12     16     1  0.0000000  7.5312000  2
      8     10     12     16     1  0.0000000  8.3680000  1
      9      8     10     11     1  180.0000000  10.4600000  2
      9      8     10     11     1  0.0000000  8.3680000  1
      9      8     10     12     1  180.0000000  10.4600000  2
     10     12     14     20     1  180.0000000  2.3012000  3
     10     12     14     20     1  180.0000000  6.6107200  2
     10     12     14     20     1  180.0000000  1.8828000  1
     10     12     16     17     1  0.0000000  0.6508444  3
     10     12     16     18     1  0.0000000  0.6508444  3
     10     12     16     19     1  0.0000000  0.6508444  3
     12     14     20     21     1  180.0000000  10.4600000  2
     12     14     20     22     1  180.0000000  10.4600000  2
     13     12     14     15     1  0.0000000  3.3472000  1
     13     12     14     15     1  180.0000000  0.3347200  3
     13     12     16     17     1  0.0000000  0.6508444  3
     13     12     16     18     1  0.0000000  0.6508444  3
     13     12     16     19     1  0.0000000  0.6508444  3
     14     12     16     17     1  0.0000000  0.6508444  3
     14     12     16     18     1  0.0000000  0.6508444  3
     14     12     16     19     1  0.0000000  0.6508444  3
     14     20     22     25     1  0.0000000  1.7572800  3
     14     20     22     25     1  0.0000000  1.1296800  2
     15     14     20     21     1  180.0000000  10.4600000  2
     15     14     20     21     1  0.0000000  8.3680000  1
     15     14     20     22     1  180.0000000  10.4600000  2
     16     12     14     20     1  0.0000000  1.6736000  3
     16     12     14     20     1  0.0000000  0.8368000  2
     16     12     14     20     1  0.0000000  0.8368000  1
      5     10      8      9     4  180.0000000  43.9320000  2
      8     12     10     11     4  180.0000000  4.6024000  2
     12     20     14     15     4  180.0000000  43.9320000  2
     14     22     20     21     4  180.0000000  4.6024000  2
     22     26     25     27     4  180.0000000  43.9320000  2


[ moleculetype ]
; Name            nrexcl
HOH          3

[ atoms ]
;   nr       type  resnr residue  atom   cgnr    charge       mass  typeB    chargeB      massB
; residue    1 HOH rtp HOH q 0.0
    1         O2      1    HOH      O      1 -0.83400000  15.999430   ; qtot -0.834000
    2         H5      1    HOH     H1      2 0.41700000   1.007947   ; qtot -0.417000
    3         H5      1    HOH     H2      3 0.41700000   1.007947   ; qtot 0.000000

#ifdef FLEXIBLE

[ bonds ]
;    ai     aj funct         c0         c1         c2         c3
      1      2     1   0.09572 462750.400000
      1      3     1   0.09572 462750.400000

[ angles ]
;    ai     aj     ak funct         c0         c1         c2         c3
      2      1      3     1   104.5200000 836.800000


#else

[ settles ]
; i     funct   doh     dhh
1     1   0.09572000   0.15139007

#endif

[ exclusions ]
1  2  3
2  1  3
3  1  2


[ moleculetype ]
; Name            nrexcl
NA          3

[ atoms ]
;   nr       type  resnr residue  atom   cgnr    charge       mass  typeB    chargeB      massB
; residue    1 NA rtp NA q 1.0
    1        Na1      1     NA     Na      1 1.00000000  22.989769   ; qtot 1.000000


[ moleculetype ]
; Name            nrexcl
CL          3

[ atoms ]
;   nr       type  resnr residue  atom   cgnr    charge       mass  typeB    chargeB      massB
; residue    1 CL rtp CL q -1.0
    1        Cl1      1     CL     Cl      1 -1.00000000  35.453200   ; qtot -1.000000

[ system ]
; Name
Generic title

[ molecules ]
; Compound       #mols
system1              1
HOH                298
NA                   1
CL                   1
