;
;   File output1.top  was generated
;   By user: swapnilw (2327909)
;   On host:hpc3-19-12 
;   At date:Sat. May  6 04:39:20 2026 
;
;   This is a standalone topology file
;
;   Created by:
;   ParmEd:       resdel, VERSION4.3.1 
;   Executable:   resdel
;   Library dir:  /usr/local/gromacs/share/gromacs/top
;   Command line:
;     /data/homezvol1/swapnilw/.conda/envs/resdel_conda/bin/resdel prepare config.yaml
;

[ defaults ]
; nbfunc        comb-rule       gen-pairs       fudgeLJ fudgeQQ
1               2               no              1            0.83333333  

[ atomtypes ]
; name    at.num    mass    charge ptype  sigma      epsilon
C1             6  12.010780  0.00000000  A     0.33996695      0.4577296
H1             1   1.007947  0.00000000  A     0.26495328      0.0656888
C2             6  12.010780  0.00000000  A     0.33996695       0.359824
O1             8  15.999430  0.00000000  A     0.29599219        0.87864
N1             7  14.006720  0.00000000  A     0.32499985        0.71128
H2             1   1.007947  0.00000000  A     0.10690785      0.0656888
H3             1   1.007947  0.00000000  A      0.2471353      0.0656888
O2             8  15.999430  0.00000000  A     0.31507524       0.635968
H4             1   1.007947  0.00000000  A              1              0
Na1           11  22.989769  0.00000000  A     0.24392807     0.36584603
Cl1           17  35.453200  0.00000000  A      0.4477657     0.14891274


[ moleculetype ]
; Name            nrexcl
system1          3

[ atoms ]
;   nr       type  resnr residue  atom   cgnr    charge       mass  typeB    chargeB      massB
; residue    1 ACE rtp ACE q -0.0
    1         C1      1    ACE    CH3      1 -0.36620000  12.010780   ; qtot -0.366200
    2         H1      1    ACE     H1      2 0.11230000   1.007947   ; qtot -0.253900
    3         H1      1    ACE     H2      3 0.11230000   1.007947   ; qtot -0.141600
    4         H1      1    ACE     H3      4 0.11230000   1.007947   ; qtot -0.029300
    5         C2      1    ACE      C      5 0.59720000  12.010780   ; qtot 0.567900
    6         O1      1    ACE      O      6 -0.56790000  15.999430   ; qtot 0.000000
; residue    2 GLY rtp GLY q 0.0
    7         N1      2    GLY      N      7 -0.41570000  14.006720   ; qtot -0.415700
    8         H2      2    GLY      H      8 0.27190000   1.007947   ; qtot -0.143800
    9         C1      2    GLY     CA      9 -0.02520000  12.010780   ; qtot -0.169000
   10         H3      2    GLY    HA2     10 0.06980000   1.007947   ; qtot -0.099200
   11         H3      2    GLY    HA3     11 0.06980000   1.007947   ; qtot -0.029400
   12         C2      2    GLY      C     12 0.59730000  12.010780   ; qtot 0.567900
   13         O1      2    GLY      O     13 -0.56790000  15.999430   ; qtot 0.000000
; residue    3 ALA rtp ALA q 0.0
   14         N1      3    ALA      N     14 -0.41570000  14.006720   ; qtot -0.415700
   15         H2      3    ALA      H     15 0.27190000   1.007947   ; qtot -0.143800
   16         C1      3    ALA     CA     16 0.03370000  12.010780   ; qtot -0.110100
   17         H3      3    ALA     HA     17 0.08230000   1.007947   ; qtot -0.027800
   18         C2      3    ALA      C     18 0.59730000  12.010780   ; qtot 0.569500
   19         O1      3    ALA      O     19 -0.56790000  15.999430   ; qtot 0.001600
   20         C1      3    ALA     CB     20 -0.18250000  12.010780   ; qtot -0.180900
   21         H1      3    ALA    HB1     21 0.06030000   1.007947   ; qtot -0.120600
   22         H1      3    ALA    HB2     22 0.06030000   1.007947   ; qtot -0.060300
   23         H1      3    ALA    HB3     23 0.06030000   1.007947   ; qtot 0.000000
; residue    4 GLY rtp GLY q 0.0
   24         N1      4    GLY      N     24 -0.41570000  14.006720   ; qtot -0.415700
   25         H2      4    GLY      H     25 0.27190000   1.007947   ; qtot -0.143800
   26         C1      4    GLY     CA     26 -0.02520000  12.010780   ; qtot -0.169000
   27         H3      4    GLY    HA2     27 0.06980000   1.007947   ; qtot -0.099200
   28         H3      4    GLY    HA3     28 0.06980000   1.007947   ; qtot -0.029400
   29         C2      4    GLY      C     29 0.59730000  12.010780   ; qtot 0.567900
   30         O1      4    GLY      O     30 -0.56790000  15.999430   ; qtot 0.000000
; residue    5 NME rtp NME q -0.0
   31         N1      5    NME      N     31 -0.41570000  14.006720   ; qtot -0.415700
   32         H2      5    NME      H     32 0.27190000   1.007947   ; qtot -0.143800
   33         C1      5    NME      C     33 -0.14900000  12.010780   ; qtot -0.292800
   34         H3      5    NME     H1     34 0.09760000   1.007947   ; qtot -0.195200
   35         H3      5    NME     H2     35 0.09760000   1.007947   ; qtot -0.097600
   36         H3      5    NME     H3     36 0.09760000   1.007947   ; qtot 0.000000

[ bonds ]
;    ai     aj funct         c0         c1         c2         c3
      1      2     1   0.10900 284512.000000
      1      3     1   0.10900 284512.000000
      1      4     1   0.10900 284512.000000
      7      8     1   0.10100 363171.200000
      9     10     1   0.10900 284512.000000
      9     11     1   0.10900 284512.000000
     14     15     1   0.10100 363171.200000
     16     17     1   0.10900 284512.000000
     20     21     1   0.10900 284512.000000
     20     22     1   0.10900 284512.000000
     20     23     1   0.10900 284512.000000
     24     25     1   0.10100 363171.200000
     26     27     1   0.10900 284512.000000
     26     28     1   0.10900 284512.000000
     31     32     1   0.10100 363171.200000
     33     34     1   0.10900 284512.000000
     33     35     1   0.10900 284512.000000
     33     36     1   0.10900 284512.000000
      5      1     1   0.15220 265265.600000
      5      6     1   0.12290 476976.000000
      5      7     1   0.13350 410032.000000
     12      9     1   0.15220 265265.600000
     12     13     1   0.12290 476976.000000
      9      7     1   0.14490 282001.600000
     12     14     1   0.13350 410032.000000
     18     16     1   0.15220 265265.600000
     18     19     1   0.12290 476976.000000
     16     20     1   0.15260 259408.000000
     16     14     1   0.14490 282001.600000
     18     24     1   0.13350 410032.000000
     29     26     1   0.15220 265265.600000
     29     30     1   0.12290 476976.000000
     26     24     1   0.14490 282001.600000
     29     31     1   0.13350 410032.000000
     33     31     1   0.14490 282001.600000

[ pairs ]
;    ai     aj funct         c0         c1         c2         c3
      2      6     1 0.280472734 0.120121613
      3      6     1 0.280472734 0.120121613
      4      6     1 0.280472734 0.120121613
      2      7     1 0.294976566 0.108077668
      3      7     1 0.294976566 0.108077668
      4      7     1 0.294976566 0.108077668
      1      8     1 0.223437399 0.086700214
      6      8     1 0.201450018 0.120121613
      1      9     1 0.339966951 0.228864800
      6      9     1 0.317979570 0.317088133
      5     10     1 0.293551128 0.076870682
      8     10     1 0.177021575 0.032844400
      5     11     1 0.293551128 0.076870682
      8     11     1 0.177021575 0.032844400
      5     12     1 0.339966951 0.179912000
      8     12     1 0.223437399 0.076870682
      7     13     1 0.310496021 0.395271761
     10     13     1 0.271563747 0.120121613
     11     13     1 0.271563747 0.120121613
      7     14     1 0.324999852 0.355640000
     10     14     1 0.286067578 0.108077668
     11     14     1 0.286067578 0.108077668
      9     15     1 0.223437399 0.086700214
     13     15     1 0.201450018 0.120121613
      9     16     1 0.339966951 0.228864800
     13     16     1 0.317979570 0.317088133
     12     17     1 0.293551128 0.076870682
     15     17     1 0.177021575 0.032844400
     12     18     1 0.339966951 0.179912000
     15     18     1 0.223437399 0.076870682
     14     19     1 0.310496021 0.395271761
     17     19     1 0.271563747 0.120121613
     12     20     1 0.339966951 0.202917530
     15     20     1 0.223437399 0.086700214
     19     20     1 0.317979570 0.317088133
     14     21     1 0.294976566 0.108077668
     17     21     1 0.256044292 0.032844400
     18     21     1 0.302460115 0.076870682
     14     22     1 0.294976566 0.108077668
     17     22     1 0.256044292 0.032844400
     18     22     1 0.302460115 0.076870682
     14     23     1 0.294976566 0.108077668
     17     23     1 0.256044292 0.032844400
     18     23     1 0.302460115 0.076870682
     14     24     1 0.324999852 0.355640000
     17     24     1 0.286067578 0.108077668
     20     24     1 0.332483402 0.285295421
     16     25     1 0.223437399 0.086700214
     19     25     1 0.201450018 0.120121613
     16     26     1 0.339966951 0.228864800
     19     26     1 0.317979570 0.317088133
     18     27     1 0.293551128 0.076870682
     25     27     1 0.177021575 0.032844400
     18     28     1 0.293551128 0.076870682
     25     28     1 0.177021575 0.032844400
     18     29     1 0.339966951 0.179912000
     25     29     1 0.223437399 0.076870682
     24     30     1 0.310496021 0.395271761
     27     30     1 0.271563747 0.120121613
     28     30     1 0.271563747 0.120121613
     24     31     1 0.324999852 0.355640000
     27     31     1 0.286067578 0.108077668
     28     31     1 0.286067578 0.108077668
     26     32     1 0.223437399 0.086700214
     30     32     1 0.201450018 0.120121613
     26     33     1 0.339966951 0.228864800
     30     33     1 0.317979570 0.317088133
     29     34     1 0.293551128 0.076870682
     32     34     1 0.177021575 0.032844400
     29     35     1 0.293551128 0.076870682
     32     35     1 0.177021575 0.032844400
     29     36     1 0.293551128 0.076870682
     32     36     1 0.177021575 0.032844400

[ angles ]
;    ai     aj     ak funct         c0         c1         c2         c3
      1      5      6     1   120.4000000 669.440000
      1      5      7     1   116.6000000 585.760000
      2      1      3     1   109.5000000 292.880000
      2      1      4     1   109.5000000 292.880000
      2      1      5     1   109.5000000 418.400000
      3      1      4     1   109.5000000 292.880000
      3      1      5     1   109.5000000 418.400000
      4      1      5     1   109.5000000 418.400000
      5      7      8     1   120.0000000 418.400000
      5      7      9     1   121.9000000 418.400000
      6      5      7     1   122.9000000 669.440000
      7      9     10     1   109.5000000 418.400000
      7      9     11     1   109.5000000 418.400000
      7      9     12     1   110.1000000 527.184000
      8      7      9     1   118.0400000 418.400000
      9     12     13     1   120.4000000 669.440000
      9     12     14     1   116.6000000 585.760000
     10      9     11     1   109.5000000 292.880000
     10      9     12     1   109.5000000 418.400000
     11      9     12     1   109.5000000 418.400000
     12     14     15     1   120.0000000 418.400000
     12     14     16     1   121.9000000 418.400000
     13     12     14     1   122.9000000 669.440000
     14     16     17     1   109.5000000 418.400000
     14     16     18     1   110.1000000 527.184000
     14     16     20     1   109.7000000 669.440000
     15     14     16     1   118.0400000 418.400000
     16     18     19     1   120.4000000 669.440000
     16     18     24     1   116.6000000 585.760000
     16     20     21     1   109.5000000 418.400000
     16     20     22     1   109.5000000 418.400000
     16     20     23     1   109.5000000 418.400000
     17     16     18     1   109.5000000 418.400000
     17     16     20     1   109.5000000 418.400000
     18     16     20     1   111.1000000 527.184000
     18     24     25     1   120.0000000 418.400000
     18     24     26     1   121.9000000 418.400000
     19     18     24     1   122.9000000 669.440000
     21     20     22     1   109.5000000 292.880000
     21     20     23     1   109.5000000 292.880000
     22     20     23     1   109.5000000 292.880000
     24     26     27     1   109.5000000 418.400000
     24     26     28     1   109.5000000 418.400000
     24     26     29     1   110.1000000 527.184000
     25     24     26     1   118.0400000 418.400000
     26     29     30     1   120.4000000 669.440000
     26     29     31     1   116.6000000 585.760000
     27     26     28     1   109.5000000 292.880000
     27     26     29     1   109.5000000 418.400000
     28     26     29     1   109.5000000 418.400000
     29     31     32     1   120.0000000 418.400000
     29     31     33     1   121.9000000 418.400000
     30     29     31     1   122.9000000 669.440000
     31     33     34     1   109.5000000 418.400000
     31     33     35     1   109.5000000 418.400000
     31     33     36     1   109.5000000 418.400000
     32     31     33     1   118.0400000 418.400000
     34     33     35     1   109.5000000 292.880000
     34     33     36     1   109.5000000 292.880000
     35     33     36     1   109.5000000 292.880000

[ dihedrals ]
;    ai     aj     ak     al funct         c0         c1         c2         c3         c4         c5
      1      5      7      8     1  180.0000000  10.4600000  2
      1      5      7      9     1  180.0000000  10.4600000  2
      2      1      5      6     1  0.0000000  3.3472000  1
      2      1      5      6     1  180.0000000  0.3347200  3
      3      1      5      6     1  0.0000000  3.3472000  1
      3      1      5      6     1  180.0000000  0.3347200  3
      4      1      5      6     1  0.0000000  3.3472000  1
      4      1      5      6     1  180.0000000  0.3347200  3
      5      7      9     12     1  0.0000000  1.7572800  3
      5      7      9     12     1  0.0000000  1.1296800  2
      6      5      7      8     1  180.0000000  10.4600000  2
      6      5      7      8     1  0.0000000  8.3680000  1
      6      5      7      9     1  180.0000000  10.4600000  2
      7      9     12     14     1  180.0000000  2.3012000  3
      7      9     12     14     1  180.0000000  6.6107200  2
      7      9     12     14     1  180.0000000  1.8828000  1
      9     12     14     15     1  180.0000000  10.4600000  2
      9     12     14     16     1  180.0000000  10.4600000  2
     10      9     12     13     1  0.0000000  3.3472000  1
     10      9     12     13     1  180.0000000  0.3347200  3
     11      9     12     13     1  0.0000000  3.3472000  1
     11      9     12     13     1  180.0000000  0.3347200  3
     12     14     16     18     1  0.0000000  1.7572800  3
     12     14     16     18     1  0.0000000  1.1296800  2
     12     14     16     20     1  0.0000000  3.3472000  3
     12     14     16     20     1  0.0000000  7.5312000  2
     12     14     16     20     1  0.0000000  8.3680000  1
     13     12     14     15     1  180.0000000  10.4600000  2
     13     12     14     15     1  0.0000000  8.3680000  1
     13     12     14     16     1  180.0000000  10.4600000  2
     14     16     18     24     1  180.0000000  2.3012000  3
     14     16     18     24     1  180.0000000  6.6107200  2
     14     16     18     24     1  180.0000000  1.8828000  1
     14     16     20     21     1  0.0000000  0.6508444  3
     14     16     20     22     1  0.0000000  0.6508444  3
     14     16     20     23     1  0.0000000  0.6508444  3
     16     18     24     25     1  180.0000000  10.4600000  2
     16     18     24     26     1  180.0000000  10.4600000  2
     17     16     18     19     1  0.0000000  3.3472000  1
     17     16     18     19     1  180.0000000  0.3347200  3
     17     16     20     21     1  0.0000000  0.6508444  3
     17     16     20     22     1  0.0000000  0.6508444  3
     17     16     20     23     1  0.0000000  0.6508444  3
     18     16     20     21     1  0.0000000  0.6508444  3
     18     16     20     22     1  0.0000000  0.6508444  3
     18     16     20     23     1  0.0000000  0.6508444  3
     18     24     26     29     1  0.0000000  1.7572800  3
     18     24     26     29     1  0.0000000  1.1296800  2
     19     18     24     25     1  180.0000000  10.4600000  2
     19     18     24     25     1  0.0000000  8.3680000  1
     19     18     24     26     1  180.0000000  10.4600000  2
     20     16     18     24     1  0.0000000  1.6736000  3
     20     16     18     24     1  0.0000000  0.8368000  2
     20     16     18     24     1  0.0000000  0.8368000  1
     24     26     29     31     1  180.0000000  2.3012000  3
     24     26     29     31     1  180.0000000  6.6107200  2
     24     26     29     31     1  180.0000000  1.8828000  1
     26     29     31     32     1  180.0000000  10.4600000  2
     26     29     31     33     1  180.0000000  10.4600000  2
     27     26     29     30     1  0.0000000  3.3472000  1
     27     26     29     30     1  180.0000000  0.3347200  3
     28     26     29     30     1  0.0000000  3.3472000  1
     28     26     29     30     1  180.0000000  0.3347200  3
     30     29     31     32     1  180.0000000  10.4600000  2
     30     29     31     32     1  0.0000000  8.3680000  1
     30     29     31     33     1  180.0000000  10.4600000  2
      1      7      5      6     4  180.0000000  43.9320000  2
      5      9      7      8     4  180.0000000  4.6024000  2
      9     14     12     13     4  180.0000000  43.9320000  2
     12     16     14     15     4  180.0000000  4.6024000  2
     16     24     18     19     4  180.0000000  43.9320000  2
     18     26     24     25     4  180.0000000  4.6024000  2
     26     31     29     30     4  180.0000000  43.9320000  2
     29     33     31     32     4  180.0000000  4.6024000  2


[ moleculetype ]
; Name            nrexcl
HOH          3

[ atoms ]
;   nr       type  resnr residue  atom   cgnr    charge       mass  typeB    chargeB      massB
; residue    1 HOH rtp HOH q 0.0
    1         O2      1    HOH      O      1 -0.83400000  15.999430   ; qtot -0.834000
    2         H4      1    HOH     H1      2 0.41700000   1.007947   ; qtot -0.417000
    3         H4      1    HOH     H2      3 0.41700000   1.007947   ; qtot 0.000000

#ifdef FLEXIBLE

[ bonds ]
;    ai     aj funct         c0         c1         c2         c3
      1      2     1   0.09572 462750.400000
      1      3     1   0.09572 462750.400000

[ angles ]
;    ai     aj     ak funct         c0         c1         c2         c3
      2      1      3     1   104.5200000 836.800000


#else

[ settles ]
; i     funct   doh     dhh
1     1   0.09572000   0.15139007

#endif

[ exclusions ]
1  2  3
2  1  3
3  1  2


[ moleculetype ]
; Name            nrexcl
NA          3

[ atoms ]
;   nr       type  resnr residue  atom   cgnr    charge       mass  typeB    chargeB      massB
; residue    1 NA rtp NA q 1.0
    1        Na1      1     NA     Na      1 1.00000000  22.989769   ; qtot 1.000000


[ moleculetype ]
; Name            nrexcl
CL          3

[ atoms ]
;   nr       type  resnr residue  atom   cgnr    charge       mass  typeB    chargeB      massB
; residue    1 CL rtp CL q -1.0
    1        Cl1      1     CL     Cl      1 -1.00000000  35.453200   ; qtot -1.000000

[ system ]
; Name
Generic title

[ molecules ]
; Compound       #mols
system1              1
HOH                509
NA                   2
CL                   2
