;
;   File /dfs9/dmobley-lab/swapnilw/pdgfra_project/residue_deletion/resdel_output_2/wt/solvated/system.top  was generated
;   By user: swapnilw (2327909)
;   On host:hpc3-15-20
;   At date:Sat. July  6 00:09:38 2026
;
;   This is a standalone topology file
;
;   Created by:
;   ParmEd:       resdel, VERSION4.3.1
;   Executable:   resdel
;   Library dir:  /opt/apps/gromacs/2022.1/gcc/8.4.0/cuda/11.7.1/share/gromacs/top
;   Command line:
;     /data/homezvol1/swapnilw/.conda/envs/resdel_conda/bin/resdel prepare config.yaml
;

[ defaults ]
; nbfunc        comb-rule       gen-pairs       fudgeLJ fudgeQQ
1               2               yes             0.5    0.83333333

[ atomtypes ]
; name    at.num    mass    charge ptype  sigma      epsilon
C1            6  12.010780   0.00000000    A   0.33996695   0.45772960
H1            1   1.007947   0.00000000    A   0.26495328   0.06568880
C2            6  12.010780   0.00000000    A   0.33996695   0.35982400
O1            8  15.999430   0.00000000    A   0.29599219   0.87864000
N1            7  14.006720   0.00000000    A   0.32499985   0.71128000
H2            1   1.007947   0.00000000    A   0.10690785   0.06568880
H3            1   1.007947   0.00000000    A   0.24713530   0.06568880
O2            8  15.999430   0.00000000    A   0.31507524   0.63596800
H4            1   1.007947   0.00000000    A   1.00000000   0.00000000
Na1          11  22.989769   0.00000000    A   0.24392807   0.36584603
Cl1          17  35.453200   0.00000000    A   0.44776570   0.14891274
dum_H      0.00000000   0.000000    A   0.00000000   0.00000000
dum_O      0.00000000   0.000000    A   0.00000000   0.00000000
dum_N      0.00000000   0.000000    A   0.00000000   0.00000000
dum_C      0.00000000   0.000000    A   0.00000000   0.00000000
dum_X      0.00000000   0.000000    A   0.00000000   0.00000000

[ moleculetype ]
; Name            nrexcl
system1          3

[ atoms ]
;   nr       type  resnr residue  atom   cgnr    charge       mass  typeB    chargeB      massB
; residue    1 ACE rtp ACE q -0.0
; residue    2 ALA rtp ALA q 0.0
     1         N1     1    ALA      N     1  -0.41570000  14.006720
     2         H2     1    ALA      H     2   0.27190000   1.007947
     3         C1     1    ALA     CA     3   0.03370000  12.010780
     4         H3     1    ALA     HA     4   0.08230000   1.007947
     5         C2     1    ALA      C     5   0.59730000  12.010780
     6         O1     1    ALA      O     6  -0.56790000  15.999430
     7         C1     1    ALA     CB     7  -0.18250000  12.010780
     8         H1     1    ALA    HB1     8   0.06030000   1.007947
     9         H1     1    ALA    HB2     9   0.06030000   1.007947
    10         H1     1    ALA    HB3    10   0.06030000   1.007947
; residue    3 ALA rtp ALA q 0.0
    11         N1     3    ALA      N    11  -0.41570000  14.006720  dum_N      0.00000000  14.006720
    12         H2     3    ALA      H    12   0.27190000   1.007947  dum_H      0.00000000   1.007947
    13         C1     3    ALA     CA    13   0.03370000  12.010780  dum_C      0.00000000  12.010780
    14         H3     3    ALA     HA    14   0.08230000   1.007947  dum_H      0.00000000   1.007947
    15         C2     3    ALA      C    15   0.59730000  12.010780  dum_C      0.00000000  12.010780
    16         O1     3    ALA      O    16  -0.56790000  15.999430  dum_O      0.00000000  15.999430
    17         C1     3    ALA     CB    17  -0.18250000  12.010780  dum_C      0.00000000  12.010780
    18         H1     3    ALA    HB1    18   0.06030000   1.007947  dum_H      0.00000000   1.007947
    19         H1     3    ALA    HB2    19   0.06030000   1.007947  dum_H      0.00000000   1.007947
    20         H1     3    ALA    HB3    20   0.06030000   1.007947  dum_H      0.00000000   1.007947
; residue    4 ALA rtp ALA q 0.0
    21         N1     2    ALA      N    21  -0.41570000  14.006720
    22         H2     2    ALA      H    22   0.27190000   1.007947
    23         C1     2    ALA     CA    23   0.03370000  12.010780
    24         H3     2    ALA     HA    24   0.08230000   1.007947
    25         C2     2    ALA      C    25   0.59730000  12.010780
    26         O1     2    ALA      O    26  -0.56790000  15.999430
    27         C1     2    ALA     CB    27  -0.18250000  12.010780
    28         H1     2    ALA    HB1    28   0.06030000   1.007947
    29         H1     2    ALA    HB2    29   0.06030000   1.007947
    30         H1     2    ALA    HB3    30   0.06030000   1.007947
; residue    5 NME rtp NME q -0.0

[ bonds ]
;    ai     aj funct         c0         c1         c2         c3
     1      2    1    0.101000   363171.200000
     3      4    1    0.109000   284512.000000
     7      8    1    0.109000   284512.000000
     7      9    1    0.109000   284512.000000
     7     10    1    0.109000   284512.000000
    21     22    1    0.101000   363171.200000
    23     24    1    0.109000   284512.000000
    27     28    1    0.109000   284512.000000
    27     29    1    0.109000   284512.000000
    27     30    1    0.109000   284512.000000
    11     12    1    0.101000   363171.200000
    13     14    1    0.109000   284512.000000
    17     18    1    0.109000   284512.000000
    17     19    1    0.109000   284512.000000
    17     20    1    0.109000   284512.000000
     5      3    1    0.152200   265265.600000
     5      6    1    0.122900   476976.000000
     3      7    1    0.152600   259408.000000
     3      1    1    0.144900   282001.600000
     5     21    1    0.133500   410032.000000
    25     23    1    0.152200   265265.600000
    25     26    1    0.122900   476976.000000
    23     27    1    0.152600   259408.000000
    23     21    1    0.144900   282001.600000
;    25     11    1    0.133500   410032.000000
    15     13    1    0.152200   265265.600000
    15     16    1    0.122900   476976.000000
    13     17    1    0.152600   259408.000000
    13     11    1    0.144900   282001.600000
     5     11    1    0.133500   410032.000000

[ pairs ]
;    ai     aj funct         c0         c1         c2         c3
     2      4    1
     2      5    1
     1      6    1
     4      6    1
     2      7    1
     6      7    1
     1      8    1
     4      8    1
     5      8    1
     1      9    1
     4      9    1
     5      9    1
     1     10    1
     4     10    1
     5     10    1
     1     21    1
     4     21    1
     7     21    1
     3     22    1
     6     22    1
     3     23    1
     6     23    1
     5     24    1
    22     24    1
     5     25    1
    22     25    1
    21     26    1
    24     26    1
     5     27    1
    22     27    1
    26     27    1
    21     28    1
    24     28    1
    25     28    1
    21     29    1
    24     29    1
    25     29    1
    21     30    1
    24     30    1
    25     30    1
    21     11    1
    24     11    1
    27     11    1
    23     12    1
    26     12    1
    23     13    1
    26     13    1
    25     14    1
    12     14    1
    25     15    1
    12     15    1
    11     16    1
    14     16    1
    25     17    1
    12     17    1
    16     17    1
    11     18    1
    14     18    1
    15     18    1
    11     19    1
    14     19    1
    15     19    1
    11     20    1
    14     20    1
    15     20    1

[ angles ]
;    ai     aj     ak funct         c0         c1         c2         c3
     1      3      4    1   109.5000000    418.400000
     1      3      5    1   110.1000000    527.184000
     1      3      7    1   109.7000000    669.440000
     2      1      3    1   118.0400000    418.400000
     3      5      6    1   120.4000000    669.440000
     3      5     21    1   116.6000000    585.760000
     3      7      8    1   109.5000000    418.400000
     3      7      9    1   109.5000000    418.400000
     3      7     10    1   109.5000000    418.400000
     4      3      5    1   109.5000000    418.400000
     4      3      7    1   109.5000000    418.400000
     5      3      7    1   111.1000000    527.184000
     5     21     22    1   120.0000000    418.400000
     5     21     23    1   121.9000000    418.400000
     6      5     21    1   122.9000000    669.440000
     8      7      9    1   109.5000000    292.880000
     8      7     10    1   109.5000000    292.880000
     9      7     10    1   109.5000000    292.880000
    21     23     24    1   109.5000000    418.400000
    21     23     25    1   110.1000000    527.184000
    21     23     27    1   109.7000000    669.440000
    22     21     23    1   118.0400000    418.400000
    23     25     26    1   120.4000000    669.440000
    23     25     11    1   116.6000000    585.760000   116.6000000      0.000000
    23     27     28    1   109.5000000    418.400000
    23     27     29    1   109.5000000    418.400000
    23     27     30    1   109.5000000    418.400000
    24     23     25    1   109.5000000    418.400000
    24     23     27    1   109.5000000    418.400000
    25     23     27    1   111.1000000    527.184000
    25     11     12    1   120.0000000    418.400000   120.0000000      0.000000
    25     11     13    1   121.9000000    418.400000   121.9000000      0.000000
    26     25     11    1   122.9000000    669.440000   122.9000000      0.000000
    28     27     29    1   109.5000000    292.880000
    28     27     30    1   109.5000000    292.880000
    29     27     30    1   109.5000000    292.880000
    11     13     14    1   109.5000000    418.400000
    11     13     15    1   110.1000000    527.184000
    11     13     17    1   109.7000000    669.440000
    12     11     13    1   118.0400000    418.400000
    13     15     16    1   120.4000000    669.440000
    13     17     18    1   109.5000000    418.400000
    13     17     19    1   109.5000000    418.400000
    13     17     20    1   109.5000000    418.400000
    14     13     15    1   109.5000000    418.400000
    14     13     17    1   109.5000000    418.400000
    15     13     17    1   111.1000000    527.184000
    18     17     19    1   109.5000000    292.880000
    18     17     20    1   109.5000000    292.880000
    19     17     20    1   109.5000000    292.880000

[ dihedrals ]
;    ai     aj     ak     al funct         c0         c1         c2         c3         c4         c5
     1      3      5     21    1   180.0000000     2.3012000   3
     1      3      5     21    1   180.0000000     6.6107200   2
     1      3      5     21    1   180.0000000     1.8828000   1
     1      3      7      8    1     0.0000000     0.6508444   3
     1      3      7      9    1     0.0000000     0.6508444   3
     1      3      7     10    1     0.0000000     0.6508444   3
     3      5     21     22    1   180.0000000    10.4600000   2
     3      5     21     23    1   180.0000000    10.4600000   2
     4      3      5      6    1     0.0000000     3.3472000   1
     4      3      5      6    1   180.0000000     0.3347200   3
     4      3      7      8    1     0.0000000     0.6508444   3
     4      3      7      9    1     0.0000000     0.6508444   3
     4      3      7     10    1     0.0000000     0.6508444   3
     5      3      7      8    1     0.0000000     0.6508444   3
     5      3      7      9    1     0.0000000     0.6508444   3
     5      3      7     10    1     0.0000000     0.6508444   3
     5     21     23     25    1     0.0000000     1.7572800   3
     5     21     23     25    1     0.0000000     1.1296800   2
     5     21     23     27    1     0.0000000     3.3472000   3
     5     21     23     27    1     0.0000000     7.5312000   2
     5     21     23     27    1     0.0000000     8.3680000   1
     6      5     21     22    1   180.0000000    10.4600000   2
     6      5     21     22    1     0.0000000     8.3680000   1
     6      5     21     23    1   180.0000000    10.4600000   2
     7      3      5     21    1     0.0000000     1.6736000   3
     7      3      5     21    1     0.0000000     0.8368000   2
     7      3      5     21    1     0.0000000     0.8368000   1
    21     23     25     11    1   180.0000000     2.3012000   3   180.0000000     0.0000000   3
    21     23     25     11    1   180.0000000     6.6107200   2   180.0000000     0.0000000   2
    21     23     25     11    1   180.0000000     1.8828000   1   180.0000000     0.0000000   1
    21     23     27     28    1     0.0000000     0.6508444   3
    21     23     27     29    1     0.0000000     0.6508444   3
    21     23     27     30    1     0.0000000     0.6508444   3
    23     25     11     12    1   180.0000000    10.4600000   2   180.0000000     0.0000000   2
    23     25     11     13    1   180.0000000    10.4600000   2   180.0000000     0.0000000   2
    24     23     25     26    1     0.0000000     3.3472000   1
    24     23     25     26    1   180.0000000     0.3347200   3
    24     23     27     28    1     0.0000000     0.6508444   3
    24     23     27     29    1     0.0000000     0.6508444   3
    24     23     27     30    1     0.0000000     0.6508444   3
    25     23     27     28    1     0.0000000     0.6508444   3
    25     23     27     29    1     0.0000000     0.6508444   3
    25     23     27     30    1     0.0000000     0.6508444   3
    25     11     13     15    1     0.0000000     1.7572800   3     0.0000000     0.0000000   3
    25     11     13     15    1     0.0000000     1.1296800   2     0.0000000     0.0000000   2
    25     11     13     17    1     0.0000000     3.3472000   3     0.0000000     0.0000000   3
    25     11     13     17    1     0.0000000     7.5312000   2     0.0000000     0.0000000   2
    25     11     13     17    1     0.0000000     8.3680000   1     0.0000000     0.0000000   1
    26     25     11     12    1   180.0000000    10.4600000   2   180.0000000     0.0000000   2
    26     25     11     12    1     0.0000000     8.3680000   1     0.0000000     0.0000000   1
    26     25     11     13    1   180.0000000    10.4600000   2   180.0000000     0.0000000   2
    27     23     25     11    1     0.0000000     1.6736000   3     0.0000000     0.0000000   3
    27     23     25     11    1     0.0000000     0.8368000   2     0.0000000     0.0000000   2
    27     23     25     11    1     0.0000000     0.8368000   1     0.0000000     0.0000000   1
    11     13     17     18    1     0.0000000     0.6508444   3
    11     13     17     19    1     0.0000000     0.6508444   3
    11     13     17     20    1     0.0000000     0.6508444   3
    14     13     15     16    1     0.0000000     3.3472000   1
    14     13     15     16    1   180.0000000     0.3347200   3
    14     13     17     18    1     0.0000000     0.6508444   3
    14     13     17     19    1     0.0000000     0.6508444   3
    14     13     17     20    1     0.0000000     0.6508444   3
    15     13     17     18    1     0.0000000     0.6508444   3
    15     13     17     19    1     0.0000000     0.6508444   3
    15     13     17     20    1     0.0000000     0.6508444   3
     3     21      5      6    4   180.0000000    43.9320000   2
     5     23     21     22    4   180.0000000     4.6024000   2
    23     11     25     26    4   180.0000000    43.9320000   2   180.0000000     0.0000000   2
    25     13     11     12    4   180.0000000     4.6024000   2   180.0000000     0.0000000   2


[ moleculetype ]
; Name            nrexcl
HOH          3

[ atoms ]
;   nr       type  resnr residue  atom   cgnr    charge       mass  typeB    chargeB      massB
; residue    1 HOH rtp HOH q 0.0
     1         O2     1    HOH      O     1  -0.83400000  15.999430; qtot -0.834000
     2         H4     1    HOH     H1     2   0.41700000   1.007947; qtot -0.417000
     3         H4     1    HOH     H2     3   0.41700000   1.007947; qtot 0.000000

#ifdef FLEXIBLE

[ bonds ]
;    ai     aj funct         c0         c1         c2         c3
     1      2    1    0.095720   462750.400000
     1      3    1    0.095720   462750.400000

[ angles ]
;    ai     aj     ak funct         c0         c1         c2         c3
     2      1      3    1   104.5200000    836.800000


#else

[ settles ]
; i     funct   doh     dhh
1     1   0.09572000   0.15139007

#endif

[ exclusions ]
   1    2    3
   2    1    3
   3    1    2


[ moleculetype ]
; Name            nrexcl
NA          3

[ atoms ]
;   nr       type  resnr residue  atom   cgnr    charge       mass  typeB    chargeB      massB
; residue    1 NA rtp NA q 1.0
     1        Na1     1     NA     Na     1   1.00000000  22.989769; qtot 1.000000


[ moleculetype ]
; Name            nrexcl
CL          3

[ atoms ]
;   nr       type  resnr residue  atom   cgnr    charge       mass  typeB    chargeB      massB
; residue    1 CL rtp CL q -1.0
     1        Cl1     1     CL     Cl     1  -1.00000000  35.453200; qtot -1.000000

[ system ]
; Name
Generic title

[ molecules ]
; Compound       #mols
system1              1
HOH               7031
NA                  26
CL                  26
