;
;   File /dfs9/dmobley-lab/swapnilw/pdgfra_project/residue_deletion/resdel_output_2/wt/solvated/system.top  was generated
;   By user: swapnilw (2327909)
;   On host:hpc3-15-20
;   At date:Sat. July  6 00:09:38 2026
;
;   This is a standalone topology file
;
;   Created by:
;   ParmEd:       resdel, VERSION4.3.1
;   Executable:   resdel
;   Library dir:  /opt/apps/gromacs/2022.1/gcc/8.4.0/cuda/11.7.1/share/gromacs/top
;   Command line:
;     /data/homezvol1/swapnilw/.conda/envs/resdel_conda/bin/resdel prepare config.yaml
;

[ defaults ]
; nbfunc        comb-rule       gen-pairs       fudgeLJ fudgeQQ
1               2               yes             0.5    0.83333333

[ atomtypes ]
; name    at.num    mass    charge ptype  sigma      epsilon
C1            6  12.010780   0.00000000    A   0.33996695   0.45772960
H1            1   1.007947   0.00000000    A   0.26495328   0.06568880
C2            6  12.010780   0.00000000    A   0.33996695   0.35982400
O1            8  15.999430   0.00000000    A   0.29599219   0.87864000
N1            7  14.006720   0.00000000    A   0.32499985   0.71128000
H2            1   1.007947   0.00000000    A   0.10690785   0.06568880
H3            1   1.007947   0.00000000    A   0.24713530   0.06568880
O2            8  15.999430   0.00000000    A   0.31507524   0.63596800
H4            1   1.007947   0.00000000    A   1.00000000   0.00000000
Na1          11  22.989769   0.00000000    A   0.24392807   0.36584603
Cl1          17  35.453200   0.00000000    A   0.44776570   0.14891274
dum_H      0.00000000   0.000000    A   0.00000000   0.00000000
dum_O      0.00000000   0.000000    A   0.00000000   0.00000000
dum_N      0.00000000   0.000000    A   0.00000000   0.00000000
dum_C      0.00000000   0.000000    A   0.00000000   0.00000000
dum_X      0.00000000   0.000000    A   0.00000000   0.00000000

[ moleculetype ]
; Name            nrexcl
system1          3

[ atoms ]
;   nr       type  resnr residue  atom   cgnr    charge       mass  typeB    chargeB      massB
; residue    1 ACE rtp ACE q -0.0
; residue    2 ALA rtp ALA q 0.0
     1         N1     1    ALA      N     1  -0.41570000  14.006720
     2         H2     1    ALA      H     2   0.27190000   1.007947
     3         C1     1    ALA     CA     3   0.03370000  12.010780
     4         H3     1    ALA     HA     4   0.08230000   1.007947
     5         C2     1    ALA      C     5   0.59730000  12.010780
     6         O1     1    ALA      O     6  -0.56790000  15.999430
     7         C1     1    ALA     CB     7  -0.18250000  12.010780
     8         H1     1    ALA    HB1     8   0.06030000   1.007947
     9         H1     1    ALA    HB2     9   0.06030000   1.007947
    10         H1     1    ALA    HB3    10   0.06030000   1.007947
; residue    3 ALA rtp ALA q 0.0
    11         N1     2    ALA      N    11  -0.41570000  14.006720
    12         H2     2    ALA      H    12   0.27190000   1.007947
    13         C1     2    ALA     CA    13   0.03370000  12.010780
    14         H3     2    ALA     HA    14   0.08230000   1.007947
    15         C2     2    ALA      C    15   0.59730000  12.010780
    16         O1     2    ALA      O    16  -0.56790000  15.999430
    17         C1     2    ALA     CB    17  -0.18250000  12.010780
    18         H1     2    ALA    HB1    18   0.06030000   1.007947
    19         H1     2    ALA    HB2    19   0.06030000   1.007947
    20         H1     2    ALA    HB3    20   0.06030000   1.007947
#ifdef DUAL_STATE_ATOMS
    21         N1     2    ALA      N    21  -0.41570000  14.006720
    22         H2     2    ALA      H    22   0.27190000   1.007947
    23         C1     2    ALA     CA    23   0.03370000  12.010780
    24         H3     2    ALA     HA    24   0.08230000   1.007947
    25         C2     2    ALA      C    25   0.59730000  12.010780
    26         O1     2    ALA      O    26  -0.56790000  15.999430
    27         C1     2    ALA     CB    27  -0.18250000  12.010780
    28         H1     2    ALA    HB1    28   0.06030000   1.007947
    29         H1     2    ALA    HB2    29   0.06030000   1.007947
    30         H1     2    ALA    HB3    30   0.06030000   1.007947
#endif
#ifdef KEEP
    21      dum_N     3    ALA      N    21   0.00000000  14.006720
    22      dum_H     3    ALA      H    22   0.00000000   1.007947
    23      dum_C     3    ALA     CA    23   0.00000000  12.010780
    24      dum_H     3    ALA     HA    24   0.00000000   1.007947
    25      dum_C     3    ALA      C    25   0.00000000  12.010780
    26      dum_O     3    ALA      O    26   0.00000000  15.999430
    27      dum_C     3    ALA     CB    27   0.00000000  12.010780
    28      dum_H     3    ALA    HB1    28   0.00000000   1.007947
    29      dum_H     3    ALA    HB2    29   0.00000000   1.007947
    30      dum_H     3    ALA    HB3    30   0.00000000   1.007947
#endif
#ifdef REAL_RES_I_ATOMS
    21         N1     2    ALA      N    21  -0.41570000  14.006720
    22         H2     2    ALA      H    22   0.27190000   1.007947
    23         C1     2    ALA     CA    23   0.03370000  12.010780
    24         H3     2    ALA     HA    24   0.08230000   1.007947
    25         C2     2    ALA      C    25   0.59730000  12.010780
    26         O1     2    ALA      O    26  -0.56790000  15.999430
    27         C1     2    ALA     CB    27  -0.18250000  12.010780
    28         H1     2    ALA    HB1    28   0.06030000   1.007947
    29         H1     2    ALA    HB2    29   0.06030000   1.007947
    30         H1     2    ALA    HB3    30   0.06030000   1.007947
#endif
; residue    4 ALA rtp ALA q 0.0

[ bonds ]
;    ai     aj funct         c0         c1         c2         c3
     1      2    1    0.101000   363171.200000
     3      4    1    0.109000   284512.000000
     7      8    1    0.109000   284512.000000
     7      9    1    0.109000   284512.000000
     7     10    1    0.109000   284512.000000
    21     22    1    0.101000   363171.200000
    23     24    1    0.109000   284512.000000
    27     28    1    0.109000   284512.000000
    27     29    1    0.109000   284512.000000
    27     30    1    0.109000   284512.000000
    11     12    1    0.101000   363171.200000
    13     14    1    0.109000   284512.000000
    17     18    1    0.109000   284512.000000
    17     19    1    0.109000   284512.000000
    17     20    1    0.109000   284512.000000
     5      3    1    0.152200   265265.600000
     5      6    1    0.122900   476976.000000
     3      7    1    0.152600   259408.000000
     3      1    1    0.144900   282001.600000
;     5     21    1    0.133500   410032.000000
    25     23    1    0.152200   265265.600000
    25     26    1    0.122900   476976.000000
    23     27    1    0.152600   259408.000000
    23     21    1    0.144900   282001.600000
#ifdef OLD_PEPTIDE_BOND
    25     11    1    0.133500   410032.000000
#endif
#ifdef NEW_MORSE_BOND
    25     11    3    0.133500   410032.000000      1.00    0.133500        0.000000      0.00
#endif
    15     13    1    0.152200   265265.600000
    15     16    1    0.122900   476976.000000
    13     17    1    0.152600   259408.000000
    13     11    1    0.144900   282001.600000
#ifdef NEW_FC0_BOND
     5     11    5
#endif
#ifdef NEW_DIST_RESTR
     5     11   10    0.250000   0.650000   1.320000   410032.000000    0.133500   0.133500   1.320000   410032.000000
#endif
#ifdef KEEP
     5     11    1    0.133500   410032.000000
#endif
    15     21    1    0.133500   410032.000000

[ pairs ]
;    ai     aj funct         c0         c1         c2         c3
     2      4    1
     2      5    1
     1      6    1
     4      6    1
     2      7    1
     6      7    1
     1      8    1
     4      8    1
     5      8    1
     1      9    1
     4      9    1
     5      9    1
     1     10    1
     4     10    1
     5     10    1
    12     14    1
    12     15    1
    11     16    1
    14     16    1
    12     17    1
    16     17    1
    11     18    1
    14     18    1
    15     18    1
    11     19    1
    14     19    1
    15     19    1
    11     20    1
    14     20    1
    15     20    1
#ifdef KEEP
    22     24    1
    22     25    1
    21     26    1
    24     26    1
    22     27    1
    26     27    1
    21     28    1
    24     28    1
    25     28    1
    21     29    1
    24     29    1
    25     29    1
    21     30    1
    24     30    1
    25     30    1
#endif
#ifdef PAIRS_RES_I
     1     21    1
     4     21    1
     7     21    1
     3     22    1
     6     22    1
     3     23    1
     6     23    1
     5     24    1
     5     25    1
     5     27    1
    21     11    1
    24     11    1
    27     11    1
    23     12    1
    26     12    1
    23     13    1
    26     13    1
    25     14    1
    25     15    1
    25     17    1
#endif
#ifdef KEEP
     1     11    1
     5     14    1
     3     13    1
     5     17    1
     6     13    1
     4     11    1
     3     12    1
     5     15    1
     7     11    1
     6     12    1
#endif

[ angles ]
;    ai     aj     ak funct         c0         c1         c2         c3
     1      3      4    1   109.5000000    418.400000
     1      3      5    1   110.1000000    527.184000
     1      3      7    1   109.7000000    669.440000
     2      1      3    1   118.0400000    418.400000
     3      5      6    1   120.4000000    669.440000
     3      7      8    1   109.5000000    418.400000
     3      7      9    1   109.5000000    418.400000
     3      7     10    1   109.5000000    418.400000
     4      3      5    1   109.5000000    418.400000
     4      3      7    1   109.5000000    418.400000
     5      3      7    1   111.1000000    527.184000
     8      7      9    1   109.5000000    292.880000
     8      7     10    1   109.5000000    292.880000
     9      7     10    1   109.5000000    292.880000
    11     13     14    1   109.5000000    418.400000
    11     13     15    1   110.1000000    527.184000
    11     13     17    1   109.7000000    669.440000
    12     11     13    1   118.0400000    418.400000
    13     15     16    1   120.4000000    669.440000
    13     17     18    1   109.5000000    418.400000
    13     17     19    1   109.5000000    418.400000
    13     17     20    1   109.5000000    418.400000
    14     13     15    1   109.5000000    418.400000
    14     13     17    1   109.5000000    418.400000
    15     13     17    1   111.1000000    527.184000
    18     17     19    1   109.5000000    292.880000
    18     17     20    1   109.5000000    292.880000
    19     17     20    1   109.5000000    292.880000
#ifdef KEEP
    21     23     24    1   109.5000000    418.400000
    21     23     25    1   110.1000000    527.184000
    21     23     27    1   109.7000000    669.440000
    22     21     23    1   118.0400000    418.400000
    23     25     26    1   120.4000000    669.440000
    23     27     28    1   109.5000000    418.400000
    23     27     29    1   109.5000000    418.400000
    23     27     30    1   109.5000000    418.400000
    24     23     25    1   109.5000000    418.400000
    24     23     27    1   109.5000000    418.400000
    25     23     27    1   111.1000000    527.184000
    28     27     29    1   109.5000000    292.880000
    28     27     30    1   109.5000000    292.880000
    29     27     30    1   109.5000000    292.880000
#endif
#ifdef DUAL_TOP_ANGLES
     3      5     21    1   116.6000000    585.760000   116.6000000      0.000000
     5     21     22    1   120.0000000    418.400000   120.0000000      0.000000
     5     21     23    1   121.9000000    418.400000   121.9000000      0.000000
     6      5     21    1   122.9000000    669.440000   122.9000000      0.000000
    23     25     11    1   116.6000000    585.760000   116.6000000      0.000000
    25     11     12    1   120.0000000    418.400000   120.0000000      0.000000
    25     11     13    1   121.9000000    418.400000   121.9000000      0.000000
    26     25     11    1   122.9000000    669.440000   122.9000000      0.000000
     6      5     11    1   122.9000000      0.000000   122.9000000    669.440000
     5     11     12    1   120.0000000      0.000000   120.0000000    418.400000
     5     11     13    1   121.9000000      0.000000   121.9000000    418.400000
     3      5     11    1   116.6000000      0.000000   116.6000000    585.760000
#endif
#ifdef KEEP
     6      5     11    1   122.9000000    669.440000
     5     11     12    1   120.0000000    418.400000
     5     11     13    1   121.9000000    418.400000
     3      5     11    1   116.6000000    585.760000
#endif
#ifdef ANGLES_OF_RES_I
     3      5     21    1   116.6000000    585.760000
     5     21     22    1   120.0000000    418.400000
     5     21     23    1   121.9000000    418.400000
     6      5     21    1   122.9000000    669.440000
    23     25     11    1   116.6000000    585.760000
    25     11     12    1   120.0000000    418.400000
    25     11     13    1   121.9000000    418.400000
    26     25     11    1   122.9000000    669.440000
#endif

[ dihedrals ]
;    ai     aj     ak     al funct         c0         c1         c2         c3         c4         c5
     1      3      7      8    1     0.0000000     0.6508444   3
     1      3      7      9    1     0.0000000     0.6508444   3
     1      3      7     10    1     0.0000000     0.6508444   3
     4      3      5      6    1     0.0000000     3.3472000   1
     4      3      5      6    1   180.0000000     0.3347200   3
     4      3      7      8    1     0.0000000     0.6508444   3
     4      3      7      9    1     0.0000000     0.6508444   3
     4      3      7     10    1     0.0000000     0.6508444   3
     5      3      7      8    1     0.0000000     0.6508444   3
     5      3      7      9    1     0.0000000     0.6508444   3
     5      3      7     10    1     0.0000000     0.6508444   3
    11     13     17     18    1     0.0000000     0.6508444   3
    11     13     17     19    1     0.0000000     0.6508444   3
    11     13     17     20    1     0.0000000     0.6508444   3
    14     13     15     16    1     0.0000000     3.3472000   1
    14     13     15     16    1   180.0000000     0.3347200   3
    14     13     17     18    1     0.0000000     0.6508444   3
    14     13     17     19    1     0.0000000     0.6508444   3
    14     13     17     20    1     0.0000000     0.6508444   3
    15     13     17     18    1     0.0000000     0.6508444   3
    15     13     17     19    1     0.0000000     0.6508444   3
    15     13     17     20    1     0.0000000     0.6508444   3
#ifdef KEEP
    21     23     27     28    1     0.0000000     0.6508444   3
    21     23     27     29    1     0.0000000     0.6508444   3
    21     23     27     30    1     0.0000000     0.6508444   3
    24     23     25     26    1     0.0000000     3.3472000   1
    24     23     25     26    1   180.0000000     0.3347200   3
    24     23     27     28    1     0.0000000     0.6508444   3
    24     23     27     29    1     0.0000000     0.6508444   3
    24     23     27     30    1     0.0000000     0.6508444   3
    25     23     27     28    1     0.0000000     0.6508444   3
    25     23     27     29    1     0.0000000     0.6508444   3
    25     23     27     30    1     0.0000000     0.6508444   3
#endif
#ifdef DUAL_TOP_DIHEDRALS
     1      3      5     21    1   180.0000000     2.3012000   3   180.0000000     0.0000000   3
     1      3      5     21    1   180.0000000     6.6107200   2   180.0000000     0.0000000   2
     1      3      5     21    1   180.0000000     1.8828000   1   180.0000000     0.0000000   1
     3      5     21     22    1   180.0000000    10.4600000   2   180.0000000     0.0000000   2
     3      5     21     23    1   180.0000000    10.4600000   2   180.0000000     0.0000000   2
     5     21     23     25    1     0.0000000     1.7572800   3     0.0000000     0.0000000   3
     5     21     23     25    1     0.0000000     1.1296800   2     0.0000000     0.0000000   2
     5     21     23     27    1     0.0000000     3.3472000   3     0.0000000     0.0000000   3
     5     21     23     27    1     0.0000000     7.5312000   2     0.0000000     0.0000000   2
     5     21     23     27    1     0.0000000     8.3680000   1     0.0000000     0.0000000   1
     6      5     21     22    1   180.0000000    10.4600000   2   180.0000000     0.0000000   2
     6      5     21     22    1     0.0000000     8.3680000   1     0.0000000     0.0000000   1
     6      5     21     23    1   180.0000000    10.4600000   2   180.0000000     0.0000000   2
     7      3      5     21    1     0.0000000     1.6736000   3     0.0000000     0.0000000   3
     7      3      5     21    1     0.0000000     0.8368000   2     0.0000000     0.0000000   2
     7      3      5     21    1     0.0000000     0.8368000   1     0.0000000     0.0000000   1
    21     23     25     11    1   180.0000000     2.3012000   3   180.0000000     0.0000000   3
    21     23     25     11    1   180.0000000     6.6107200   2   180.0000000     0.0000000   2
    21     23     25     11    1   180.0000000     1.8828000   1   180.0000000     0.0000000   1
    23     25     11     12    1   180.0000000    10.4600000   2   180.0000000     0.0000000   2
    23     25     11     13    1   180.0000000    10.4600000   2   180.0000000     0.0000000   2
    25     11     13     15    1     0.0000000     1.7572800   3     0.0000000     0.0000000   3
    25     11     13     15    1     0.0000000     1.1296800   2     0.0000000     0.0000000   2
    25     11     13     17    1     0.0000000     3.3472000   3     0.0000000     0.0000000   3
    25     11     13     17    1     0.0000000     7.5312000   2     0.0000000     0.0000000   2
    25     11     13     17    1     0.0000000     8.3680000   1     0.0000000     0.0000000   1
    26     25     11     12    1   180.0000000    10.4600000   2   180.0000000     0.0000000   2
    26     25     11     12    1     0.0000000     8.3680000   1     0.0000000     0.0000000   1
    26     25     11     13    1   180.0000000    10.4600000   2   180.0000000     0.0000000   2
    27     23     25     11    1     0.0000000     1.6736000   3     0.0000000     0.0000000   3
    27     23     25     11    1     0.0000000     0.8368000   2     0.0000000     0.0000000   2
    27     23     25     11    1     0.0000000     0.8368000   1     0.0000000     0.0000000   1
     3     21      5      6    4   180.0000000    43.9320000   2   180.0000000     0.0000000   2
     5     23     21     22    4   180.0000000     4.6024000   2   180.0000000     0.0000000   2
    23     11     25     26    4   180.0000000    43.9320000   2   180.0000000     0.0000000   2
    25     13     11     12    4   180.0000000     4.6024000   2   180.0000000     0.0000000   2
     6      5     11     12    1     0.0000000     0.0000000   1     0.0000000     8.3680000   1
     5     11     13     17    1     0.0000000     0.0000000   3     0.0000000     3.3472000   3
     7      3      5     11    1     0.0000000     0.0000000   1     0.0000000     0.8368000   1
     3      5     11     12    1   180.0000000     0.0000000   2   180.0000000    10.4600000   2
     3     11      5      6    4   180.0000000     0.0000000   2   180.0000000    43.9320000   2
     6      5     11     13    1   180.0000000     0.0000000   2   180.0000000    10.4600000   2
     3      5     11     13    1   180.0000000     0.0000000   2   180.0000000    10.4600000   2
     7      3      5     11    1     0.0000000     0.0000000   2     0.0000000     0.8368000   2
     7      3      5     11    1     0.0000000     0.0000000   3     0.0000000     1.6736000   3
     5     11     13     17    1     0.0000000     0.0000000   2     0.0000000     7.5312000   2
     5     13     11     12    4   180.0000000     0.0000000   2   180.0000000     4.6024000   2
     6      5     11     12    1   180.0000000     0.0000000   2   180.0000000    10.4600000   2
     1      3      5     11    1   180.0000000     0.0000000   1   180.0000000     1.8828000   1
     5     11     13     15    1     0.0000000     0.0000000   2     0.0000000     1.1296800   2
     1      3      5     11    1   180.0000000     0.0000000   3   180.0000000     2.3012000   3
     5     11     13     15    1     0.0000000     0.0000000   3     0.0000000     1.7572800   3
     5     11     13     17    1     0.0000000     0.0000000   1     0.0000000     8.3680000   1
     1      3      5     11    1   180.0000000     0.0000000   2   180.0000000     6.6107200   2
#endif
#ifdef KEEP
     6      5     11     12    1     0.0000000     8.3680000   1
     5     11     13     17    1     0.0000000     3.3472000   3
     7      3      5     11    1     0.0000000     0.8368000   1
     3      5     11     12    1   180.0000000    10.4600000   2
     3     11      5      6    4   180.0000000    43.9320000   2
     6      5     11     13    1   180.0000000    10.4600000   2
     3      5     11     13    1   180.0000000    10.4600000   2
     7      3      5     11    1     0.0000000     0.8368000   2
     7      3      5     11    1     0.0000000     1.6736000   3
     5     11     13     17    1     0.0000000     7.5312000   2
     5     13     11     12    4   180.0000000     4.6024000   2
     6      5     11     12    1   180.0000000    10.4600000   2
     1      3      5     11    1   180.0000000     1.8828000   1
     5     11     13     15    1     0.0000000     1.1296800   2
     1      3      5     11    1   180.0000000     2.3012000   3
     5     11     13     15    1     0.0000000     1.7572800   3
     5     11     13     17    1     0.0000000     8.3680000   1
     1      3      5     11    1   180.0000000     6.6107200   2
#endif
#ifdef DIHEDRALS_OF_RES_I
     1      3      5     21    1   180.0000000     2.3012000   3
     1      3      5     21    1   180.0000000     6.6107200   2
     1      3      5     21    1   180.0000000     1.8828000   1
     3      5     21     22    1   180.0000000    10.4600000   2
     3      5     21     23    1   180.0000000    10.4600000   2
     5     21     23     25    1     0.0000000     1.7572800   3
     5     21     23     25    1     0.0000000     1.1296800   2
     5     21     23     27    1     0.0000000     3.3472000   3
     5     21     23     27    1     0.0000000     7.5312000   2
     5     21     23     27    1     0.0000000     8.3680000   1
     6      5     21     22    1   180.0000000    10.4600000   2
     6      5     21     22    1     0.0000000     8.3680000   1
     6      5     21     23    1   180.0000000    10.4600000   2
     7      3      5     21    1     0.0000000     1.6736000   3
     7      3      5     21    1     0.0000000     0.8368000   2
     7      3      5     21    1     0.0000000     0.8368000   1
    21     23     25     11    1   180.0000000     2.3012000   3
    21     23     25     11    1   180.0000000     6.6107200   2
    21     23     25     11    1   180.0000000     1.8828000   1
    23     25     11     12    1   180.0000000    10.4600000   2
    23     25     11     13    1   180.0000000    10.4600000   2
    25     11     13     15    1     0.0000000     1.7572800   3
    25     11     13     15    1     0.0000000     1.1296800   2
    25     11     13     17    1     0.0000000     3.3472000   3
    25     11     13     17    1     0.0000000     7.5312000   2
    25     11     13     17    1     0.0000000     8.3680000   1
    26     25     11     12    1   180.0000000    10.4600000   2
    26     25     11     12    1     0.0000000     8.3680000   1
    26     25     11     13    1   180.0000000    10.4600000   2
    27     23     25     11    1     0.0000000     1.6736000   3
    27     23     25     11    1     0.0000000     0.8368000   2
    27     23     25     11    1     0.0000000     0.8368000   1
     3     21      5      6    4   180.0000000    43.9320000   2
     5     23     21     22    4   180.0000000     4.6024000   2
    23     11     25     26    4   180.0000000    43.9320000   2
    25     13     11     12    4   180.0000000     4.6024000   2
#endif

[ exclusions ]
#ifdef EXCLS_ON
   1   21
   3   15   21   22   23
   4   21
   5   16   21   22   23   24   25   27
   6   15   21   22   23
   7   21
  11   22   23
  12   21
  15    3    6
  16    5
  21    1    3    4    5    6    7   12
  22    3    5    6   11
  23    3    5    6   11
  24    5
  25    5
  27    5
#endif


[ pairs_nb ]
#ifdef EDGE1_STEP0
     1     21    1  -0.41570000  -0.41570000   0.32500000   0.71128000
     3     22    1   0.03370000   0.27190000   0.22343700   0.17340000
     3     23    1   0.03370000   0.03370000   0.33996700   0.45773000
     4     21    1   0.08230000  -0.41570000   0.28606800   0.21615500
     5     24    1   0.59730000   0.08230000   0.29355100   0.15374100
     5     25    1   0.59730000   0.59730000   0.33996700   0.35982400
     5     27    1   0.59730000  -0.18250000   0.33996700   0.40583500
     6     22    1  -0.56790000   0.27190000   0.20145000   0.24024300
     6     23    1  -0.56790000   0.03370000   0.31798000   0.63417600
     7     21    1  -0.18250000  -0.41570000   0.33248300   0.57059100
     3     15    1   0.03370000   0.59730000   0.33996700   0.40583500
     3     21    1   0.03370000  -0.41570000   0.33248300   0.57059100
     5     16    1   0.59730000  -0.56790000   0.31798000   0.56227700
     5     21    1   0.59730000  -0.41570000   0.33248300   0.50590100
     5     22    1   0.59730000   0.27190000   0.22343700   0.15374100
     5     23    1   0.59730000   0.03370000   0.33996700   0.40583500
     6     15    1  -0.56790000   0.59730000   0.31798000   0.56227700
     6     21    1  -0.56790000  -0.41570000   0.31049600   0.79054400
    11     22    1  -0.41570000   0.27190000   0.21595400   0.21615500
    11     23    1  -0.41570000   0.03370000   0.33248300   0.57059100
    12     21    1   0.27190000  -0.41570000   0.21595400   0.21615500
#endif
#ifdef EDGE1_STEP1
     1     21    1  -0.41328500  -0.41328500   0.32500000   0.68757100
     3     22    1   0.03350400   0.27032100   0.22343700   0.16762000
     3     23    1   0.03350400   0.03350400   0.33996700   0.44247200
     4     21    1   0.08182200  -0.41328500   0.28606800   0.20895000
     5     24    1   0.59383100   0.08182200   0.29355100   0.14861700
     5     25    1   0.59383100   0.59383100   0.33996700   0.34783000
     5     27    1   0.59383100  -0.18144000   0.33996700   0.39230700
     6     22    1  -0.56460100   0.27032100   0.20145000   0.23223500
     6     23    1  -0.56460100   0.03350400   0.31798000   0.61303700
     7     21    1  -0.18144000  -0.41328500   0.33248300   0.55157100
     3     15    1   0.03145300   0.55748000   0.31730200   0.37877900
     3     21    1   0.03145300  -0.38798700   0.31031800   0.53255100
     5     16    1   0.55748000  -0.53004000   0.29678100   0.52479200
     5     21    1   0.55748000  -0.38798700   0.31031800   0.47217400
     5     22    1   0.55748000   0.25377300   0.20854200   0.14349200
     5     23    1   0.55748000   0.03145300   0.31730200   0.37877900
     6     15    1  -0.53004000   0.55748000   0.29678100   0.52479200
     6     21    1  -0.53004000  -0.38798700   0.28979600   0.73784100
    11     22    1  -0.38798700   0.25377300   0.20155700   0.20174500
    11     23    1  -0.38798700   0.03145300   0.31031800   0.53255100
    12     21    1   0.25377300  -0.38798700   0.20155700   0.20174500
#endif
#ifdef EDGE1_STEP2
     1     21    1  -0.41087100  -0.41087100   0.32500000   0.66386100
     3     22    1   0.03330900   0.26874100   0.22343700   0.16184000
     3     23    1   0.03330900   0.03330900   0.33996700   0.42721400
     4     21    1   0.08134400  -0.41087100   0.28606800   0.20174500
     5     24    1   0.59036100   0.08134400   0.29355100   0.14349200
     5     25    1   0.59036100   0.59036100   0.33996700   0.33583600
     5     27    1   0.59036100  -0.18038000   0.33996700   0.37877900
     6     22    1  -0.56130300   0.26874100   0.20145000   0.22422700
     6     23    1  -0.56130300   0.03330900   0.31798000   0.59189800
     7     21    1  -0.18038000  -0.41087100   0.33248300   0.53255100
     3     15    1   0.02920700   0.51766000   0.29463800   0.35172400
     3     21    1   0.02920700  -0.36027300   0.28815200   0.49451200
     5     16    1   0.51766000  -0.49218000   0.27558200   0.48730700
     5     21    1   0.51766000  -0.36027300   0.28815200   0.43844700
     5     22    1   0.51766000   0.23564700   0.19364600   0.13324300
     5     23    1   0.51766000   0.02920700   0.29463800   0.35172400
     6     15    1  -0.49218000   0.51766000   0.27558200   0.48730700
     6     21    1  -0.49218000  -0.36027300   0.26909700   0.68513800
    11     22    1  -0.36027300   0.23564700   0.18716000   0.18733500
    11     23    1  -0.36027300   0.02920700   0.28815200   0.49451200
    12     21    1   0.23564700  -0.36027300   0.18716000   0.18733500
#endif
#ifdef EDGE1_STEP3
     1     21    1  -0.40845600  -0.40845600   0.32500000   0.64015200
     3     22    1   0.03311300   0.26716200   0.22343700   0.15606000
     3     23    1   0.03311300   0.03311300   0.33996700   0.41195700
     4     21    1   0.08086600  -0.40845600   0.28606800   0.19454000
     5     24    1   0.58689200   0.08086600   0.29355100   0.13836700
     5     25    1   0.58689200   0.58689200   0.33996700   0.32384200
     5     27    1   0.58689200  -0.17932000   0.33996700   0.36525200
     6     22    1  -0.55800400   0.26716200   0.20145000   0.21621900
     6     23    1  -0.55800400   0.03311300   0.31798000   0.57075900
     7     21    1  -0.17932000  -0.40845600   0.33248300   0.51353200
     3     15    1   0.02696000   0.47784000   0.27197400   0.32466800
     3     21    1   0.02696000  -0.33256000   0.26598700   0.45647300
     5     16    1   0.47784000  -0.45432000   0.25438400   0.44982200
     5     21    1   0.47784000  -0.33256000   0.26598700   0.40472100
     5     22    1   0.47784000   0.21752000   0.17875000   0.12299300
     5     23    1   0.47784000   0.02696000   0.27197400   0.32466800
     6     15    1  -0.45432000   0.47784000   0.25438400   0.44982200
     6     21    1  -0.45432000  -0.33256000   0.24839700   0.63243500
    11     22    1  -0.33256000   0.21752000   0.17276300   0.17292400
    11     23    1  -0.33256000   0.02696000   0.26598700   0.45647300
    12     21    1   0.21752000  -0.33256000   0.17276300   0.17292400
#endif
#ifdef EDGE1_STEP4
     1     21    1  -0.40604100  -0.40604100   0.32500000   0.61644300
     3     22    1   0.03291700   0.26558300   0.22343700   0.15028000
     3     23    1   0.03291700   0.03291700   0.33996700   0.39669900
     4     21    1   0.08038800  -0.40604100   0.28606800   0.18733500
     5     24    1   0.58342200   0.08038800   0.29355100   0.13324300
     5     25    1   0.58342200   0.58342200   0.33996700   0.31184700
     5     27    1   0.58342200  -0.17826000   0.33996700   0.35172400
     6     22    1  -0.55470500   0.26558300   0.20145000   0.20821100
     6     23    1  -0.55470500   0.03291700   0.31798000   0.54961900
     7     21    1  -0.17826000  -0.40604100   0.33248300   0.49451200
     3     15    1   0.02471300   0.43802000   0.24930900   0.29761200
     3     21    1   0.02471300  -0.30484700   0.24382100   0.41843300
     5     16    1   0.43802000  -0.41646000   0.23318500   0.41233700
     5     21    1   0.43802000  -0.30484700   0.24382100   0.37099400
     5     22    1   0.43802000   0.19939300   0.16385400   0.11274400
     5     23    1   0.43802000   0.02471300   0.24930900   0.29761200
     6     15    1  -0.41646000   0.43802000   0.23318500   0.41233700
     6     21    1  -0.41646000  -0.30484700   0.22769700   0.57973200
    11     22    1  -0.30484700   0.19939300   0.15836600   0.15851400
    11     23    1  -0.30484700   0.02471300   0.24382100   0.41843300
    12     21    1   0.19939300  -0.30484700   0.15836600   0.15851400
#endif
#ifdef EDGE1_STEP5
     1     21    1  -0.40362700  -0.40362700   0.32500000   0.59273300
     3     22    1   0.03272100   0.26400300   0.22343700   0.14450000
     3     23    1   0.03272100   0.03272100   0.33996700   0.38144100
     4     21    1   0.07991000  -0.40362700   0.28606800   0.18012900
     5     24    1   0.57995300   0.07991000   0.29355100   0.12811800
     5     25    1   0.57995300   0.57995300   0.33996700   0.29985300
     5     27    1   0.57995300  -0.17720000   0.33996700   0.33819600
     6     22    1  -0.55140600   0.26400300   0.20145000   0.20020300
     6     23    1  -0.55140600   0.03272100   0.31798000   0.52848000
     7     21    1  -0.17720000  -0.40362700   0.33248300   0.47549200
     3     15    1   0.02246700   0.39820000   0.22664500   0.27055700
     3     21    1   0.02246700  -0.27713300   0.22165600   0.38039400
     5     16    1   0.39820000  -0.37860000   0.21198600   0.37485200
     5     21    1   0.39820000  -0.27713300   0.22165600   0.33726700
     5     22    1   0.39820000   0.18126700   0.14895800   0.10249400
     5     23    1   0.39820000   0.02246700   0.22664500   0.27055700
     6     15    1  -0.37860000   0.39820000   0.21198600   0.37485200
     6     21    1  -0.37860000  -0.27713300   0.20699700   0.52702900
    11     22    1  -0.27713300   0.18126700   0.14396900   0.14410400
    11     23    1  -0.27713300   0.02246700   0.22165600   0.38039400
    12     21    1   0.18126700  -0.27713300   0.14396900   0.14410400
#endif
#ifdef EDGE1_STEP6
     1     21    1  -0.40121200  -0.40121200   0.32500000   0.56902400
     3     22    1   0.03252600   0.26242400   0.22343700   0.13872000
     3     23    1   0.03252600   0.03252600   0.33996700   0.36618400
     4     21    1   0.07943200  -0.40121200   0.28606800   0.17292400
     5     24    1   0.57648300   0.07943200   0.29355100   0.12299300
     5     25    1   0.57648300   0.57648300   0.33996700   0.28785900
     5     27    1   0.57648300  -0.17614000   0.33996700   0.32466800
     6     22    1  -0.54810800   0.26242400   0.20145000   0.19219500
     6     23    1  -0.54810800   0.03252600   0.31798000   0.50734100
     7     21    1  -0.17614000  -0.40121200   0.33248300   0.45647300
     3     15    1   0.02022000   0.35838000   0.20398000   0.24350100
     3     21    1   0.02022000  -0.24942000   0.19949000   0.34235500
     5     16    1   0.35838000  -0.34074000   0.19078800   0.33736600
     5     21    1   0.35838000  -0.24942000   0.19949000   0.30354000
     5     22    1   0.35838000   0.16314000   0.13406200   0.09224500
     5     23    1   0.35838000   0.02022000   0.20398000   0.24350100
     6     15    1  -0.34074000   0.35838000   0.19078800   0.33736600
     6     21    1  -0.34074000  -0.24942000   0.18629800   0.47432600
    11     22    1  -0.24942000   0.16314000   0.12957200   0.12969300
    11     23    1  -0.24942000   0.02022000   0.19949000   0.34235500
    12     21    1   0.16314000  -0.24942000   0.12957200   0.12969300
#endif
#ifdef EDGE1_STEP7
     1     21    1  -0.39879800  -0.39879800   0.32500000   0.54531500
     3     22    1   0.03233000   0.26084400   0.22343700   0.13294000
     3     23    1   0.03233000   0.03233000   0.33996700   0.35092600
     4     21    1   0.07895400  -0.39879800   0.28606800   0.16571900
     5     24    1   0.57301400   0.07895400   0.29355100   0.11786800
     5     25    1   0.57301400   0.57301400   0.33996700   0.27586500
     5     27    1   0.57301400  -0.17508000   0.33996700   0.31114000
     6     22    1  -0.54480900   0.26084400   0.20145000   0.18418600
     6     23    1  -0.54480900   0.03233000   0.31798000   0.48620200
     7     21    1  -0.17508000  -0.39879800   0.33248300   0.43745300
     3     15    1   0.01797300   0.31856000   0.18131600   0.21644500
     3     21    1   0.01797300  -0.22170700   0.17732400   0.30431500
     5     16    1   0.31856000  -0.30288000   0.16958900   0.29988100
     5     21    1   0.31856000  -0.22170700   0.17732400   0.26981400
     5     22    1   0.31856000   0.14501300   0.11916700   0.08199500
     5     23    1   0.31856000   0.01797300   0.18131600   0.21644500
     6     15    1  -0.30288000   0.31856000   0.16958900   0.29988100
     6     21    1  -0.30288000  -0.22170700   0.16559800   0.42162300
    11     22    1  -0.22170700   0.14501300   0.11517500   0.11528300
    11     23    1  -0.22170700   0.01797300   0.17732400   0.30431500
    12     21    1   0.14501300  -0.22170700   0.11517500   0.11528300
#endif
#ifdef EDGE1_STEP8
     1     21    1  -0.39638300  -0.39638300   0.32500000   0.52160500
     3     22    1   0.03213400   0.25926500   0.22343700   0.12716000
     3     23    1   0.03213400   0.03213400   0.33996700   0.33566800
     4     21    1   0.07847600  -0.39638300   0.28606800   0.15851400
     5     24    1   0.56954400   0.07847600   0.29355100   0.11274400
     5     25    1   0.56954400   0.56954400   0.33996700   0.26387100
     5     27    1   0.56954400  -0.17401900   0.33996700   0.29761200
     6     22    1  -0.54151000   0.25926500   0.20145000   0.17617800
     6     23    1  -0.54151000   0.03213400   0.31798000   0.46506300
     7     21    1  -0.17401900  -0.39638300   0.33248300   0.41843300
     3     15    1   0.01572700   0.27874000   0.15865100   0.18939000
     3     21    1   0.01572700  -0.19399300   0.15515900   0.26627600
     5     16    1   0.27874000  -0.26502000   0.14839000   0.26239600
     5     21    1   0.27874000  -0.19399300   0.15515900   0.23608700
     5     22    1   0.27874000   0.12688700   0.10427100   0.07174600
     5     23    1   0.27874000   0.01572700   0.15865100   0.18939000
     6     15    1  -0.26502000   0.27874000   0.14839000   0.26239600
     6     21    1  -0.26502000  -0.19399300   0.14489800   0.36892000
    11     22    1  -0.19399300   0.12688700   0.10077800   0.10087200
    11     23    1  -0.19399300   0.01572700   0.15515900   0.26627600
    12     21    1   0.12688700  -0.19399300   0.10077800   0.10087200
#endif
#ifdef EDGE1_STEP9
     1     21    1  -0.39396800  -0.39396800   0.32500000   0.49789600
     3     22    1   0.03193800   0.25768600   0.22343700   0.12138000
     3     23    1   0.03193800   0.03193800   0.33996700   0.32041100
     4     21    1   0.07799800  -0.39396800   0.28606800   0.15130900
     5     24    1   0.56607500   0.07799800   0.29355100   0.10761900
     5     25    1   0.56607500   0.56607500   0.33996700   0.25187700
     5     27    1   0.56607500  -0.17295900   0.33996700   0.28408500
     6     22    1  -0.53821200   0.25768600   0.20145000   0.16817000
     6     23    1  -0.53821200   0.03193800   0.31798000   0.44392300
     7     21    1  -0.17295900  -0.39396800   0.33248300   0.39941400
     3     15    1   0.01348000   0.23892000   0.13598700   0.16233400
     3     21    1   0.01348000  -0.16628000   0.13299300   0.22823600
     5     16    1   0.23892000  -0.22716000   0.12719200   0.22491100
     5     21    1   0.23892000  -0.16628000   0.13299300   0.20236000
     5     22    1   0.23892000   0.10876000   0.08937500   0.06149700
     5     23    1   0.23892000   0.01348000   0.13598700   0.16233400
     6     15    1  -0.22716000   0.23892000   0.12719200   0.22491100
     6     21    1  -0.22716000  -0.16628000   0.12419800   0.31621700
    11     22    1  -0.16628000   0.10876000   0.08638200   0.08646200
    11     23    1  -0.16628000   0.01348000   0.13299300   0.22823600
    12     21    1   0.10876000  -0.16628000   0.08638200   0.08646200
#endif
#ifdef EDGE1_STEP10
     1     21    1  -0.39155400  -0.39155400   0.32500000   0.47418700
     3     22    1   0.03174300   0.25610600   0.22343700   0.11560000
     3     23    1   0.03174300   0.03174300   0.33996700   0.30515300
     4     21    1   0.07752000  -0.39155400   0.28606800   0.14410400
     5     24    1   0.56260500   0.07752000   0.29355100   0.10249400
     5     25    1   0.56260500   0.56260500   0.33996700   0.23988300
     5     27    1   0.56260500  -0.17189900   0.33996700   0.27055700
     6     22    1  -0.53491300   0.25610600   0.20145000   0.16016200
     6     23    1  -0.53491300   0.03174300   0.31798000   0.42278400
     7     21    1  -0.17189900  -0.39155400   0.33248300   0.38039400
     3     15    1   0.01123300   0.19910000   0.11332200   0.13527800
     3     21    1   0.01123300  -0.13856700   0.11082800   0.19019700
     5     16    1   0.19910000  -0.18930000   0.10599300   0.18742600
     5     21    1   0.19910000  -0.13856700   0.11082800   0.16863400
     5     22    1   0.19910000   0.09063300   0.07447900   0.05124700
     5     23    1   0.19910000   0.01123300   0.11332200   0.13527800
     6     15    1  -0.18930000   0.19910000   0.10599300   0.18742600
     6     21    1  -0.18930000  -0.13856700   0.10349900   0.26351500
    11     22    1  -0.13856700   0.09063300   0.07198500   0.07205200
    11     23    1  -0.13856700   0.01123300   0.11082800   0.19019700
    12     21    1   0.09063300  -0.13856700   0.07198500   0.07205200
#endif
#ifdef EDGE1_STEP11
     1     21    1  -0.38913900  -0.38913900   0.32500000   0.45047700
     3     22    1   0.03154700   0.25452700   0.22343700   0.10982000
     3     23    1   0.03154700   0.03154700   0.33996700   0.28989500
     4     21    1   0.07704100  -0.38913900   0.28606800   0.13689800
     5     24    1   0.55913600   0.07704100   0.29355100   0.09737000
     5     25    1   0.55913600   0.55913600   0.33996700   0.22788900
     5     27    1   0.55913600  -0.17083900   0.33996700   0.25702900
     6     22    1  -0.53161400   0.25452700   0.20145000   0.15215400
     6     23    1  -0.53161400   0.03154700   0.31798000   0.40164500
     7     21    1  -0.17083900  -0.38913900   0.33248300   0.36137400
     3     15    1   0.00898700   0.15928000   0.09065800   0.10822300
     3     21    1   0.00898700  -0.11085300   0.08866200   0.15215800
     5     16    1   0.15928000  -0.15144000   0.08479500   0.14994100
     5     21    1   0.15928000  -0.11085300   0.08866200   0.13490700
     5     22    1   0.15928000   0.07250700   0.05958300   0.04099800
     5     23    1   0.15928000   0.00898700   0.09065800   0.10822300
     6     15    1  -0.15144000   0.15928000   0.08479500   0.14994100
     6     21    1  -0.15144000  -0.11085300   0.08279900   0.21081200
    11     22    1  -0.11085300   0.07250700   0.05758800   0.05764100
    11     23    1  -0.11085300   0.00898700   0.08866200   0.15215800
    12     21    1   0.07250700  -0.11085300   0.05758800   0.05764100
#endif
#ifdef EDGE1_STEP12
     1     21    1  -0.38672400  -0.38672400   0.32500000   0.42676800
     3     22    1   0.03135100   0.25294800   0.22343700   0.10404000
     3     23    1   0.03135100   0.03135100   0.33996700   0.27463800
     4     21    1   0.07656300  -0.38672400   0.28606800   0.12969300
     5     24    1   0.55566600   0.07656300   0.29355100   0.09224500
     5     25    1   0.55566600   0.55566600   0.33996700   0.21589400
     5     27    1   0.55566600  -0.16977900   0.33996700   0.24350100
     6     22    1  -0.52831600   0.25294800   0.20145000   0.14414600
     6     23    1  -0.52831600   0.03135100   0.31798000   0.38050600
     7     21    1  -0.16977900  -0.38672400   0.33248300   0.34235500
     3     15    1   0.00674000   0.11946000   0.06799300   0.08116700
     3     21    1   0.00674000  -0.08314000   0.06649700   0.11411800
     5     16    1   0.11946000  -0.11358000   0.06359600   0.11245500
     5     21    1   0.11946000  -0.08314000   0.06649700   0.10118000
     5     22    1   0.11946000   0.05438000   0.04468700   0.03074800
     5     23    1   0.11946000   0.00674000   0.06799300   0.08116700
     6     15    1  -0.11358000   0.11946000   0.06359600   0.11245500
     6     21    1  -0.11358000  -0.08314000   0.06209900   0.15810900
    11     22    1  -0.08314000   0.05438000   0.04319100   0.04323100
    11     23    1  -0.08314000   0.00674000   0.06649700   0.11411800
    12     21    1   0.05438000  -0.08314000   0.04319100   0.04323100
#endif
#ifdef EDGE1_STEP13
     1     21    1  -0.38431000  -0.38431000   0.32500000   0.40305900
     3     22    1   0.03115500   0.25136800   0.22343700   0.09826000
     3     23    1   0.03115500   0.03115500   0.33996700   0.25938000
     4     21    1   0.07608500  -0.38431000   0.28606800   0.12248800
     5     24    1   0.55219700   0.07608500   0.29355100   0.08712000
     5     25    1   0.55219700   0.55219700   0.33996700   0.20390000
     5     27    1   0.55219700  -0.16871900   0.33996700   0.22997300
     6     22    1  -0.52501700   0.25136800   0.20145000   0.13613800
     6     23    1  -0.52501700   0.03115500   0.31798000   0.35936700
     7     21    1  -0.16871900  -0.38431000   0.33248300   0.32333500
     3     15    1   0.00449300   0.07964000   0.04532900   0.05411100
     3     21    1   0.00449300  -0.05542700   0.04433100   0.07607900
     5     16    1   0.07964000  -0.07572000   0.04239700   0.07497000
     5     21    1   0.07964000  -0.05542700   0.04433100   0.06745300
     5     22    1   0.07964000   0.03625300   0.02979200   0.02049900
     5     23    1   0.07964000   0.00449300   0.04532900   0.05411100
     6     15    1  -0.07572000   0.07964000   0.04239700   0.07497000
     6     21    1  -0.07572000  -0.05542700   0.04139900   0.10540600
    11     22    1  -0.05542700   0.03625300   0.02879400   0.02882100
    11     23    1  -0.05542700   0.00449300   0.04433100   0.07607900
    12     21    1   0.03625300  -0.05542700   0.02879400   0.02882100
#endif
#ifdef EDGE1_STEP14
     1     21    1  -0.38189500  -0.38189500   0.32500000   0.37934900
     3     22    1   0.03096000   0.24978900   0.22343700   0.09248000
     3     23    1   0.03096000   0.03096000   0.33996700   0.24412200
     4     21    1   0.07560700  -0.38189500   0.28606800   0.11528300
     5     24    1   0.54872700   0.07560700   0.29355100   0.08199500
     5     25    1   0.54872700   0.54872700   0.33996700   0.19190600
     5     27    1   0.54872700  -0.16765900   0.33996700   0.21644500
     6     22    1  -0.52171800   0.24978900   0.20145000   0.12813000
     6     23    1  -0.52171800   0.03096000   0.31798000   0.33822700
     7     21    1  -0.16765900  -0.38189500   0.33248300   0.30431500
     3     15    1   0.00224700   0.03982000   0.02266400   0.02705600
     3     21    1   0.00224700  -0.02771300   0.02216600   0.03803900
     5     16    1   0.03982000  -0.03786000   0.02119900   0.03748500
     5     21    1   0.03982000  -0.02771300   0.02216600   0.03372700
     5     22    1   0.03982000   0.01812700   0.01489600   0.01024900
     5     23    1   0.03982000   0.00224700   0.02266400   0.02705600
     6     15    1  -0.03786000   0.03982000   0.02119900   0.03748500
     6     21    1  -0.03786000  -0.02771300   0.02070000   0.05270300
    11     22    1  -0.02771300   0.01812700   0.01439700   0.01441000
    11     23    1  -0.02771300   0.00224700   0.02216600   0.03803900
    12     21    1   0.01812700  -0.02771300   0.01439700   0.01441000
#endif
#ifdef EDGE1_STEP15
     1     21    1  -0.37948000  -0.37948000   0.32500000   0.35564000
     3     22    1   0.03076400   0.24821000   0.22343700   0.08670000
     3     23    1   0.03076400   0.03076400   0.33996700   0.22886500
     4     21    1   0.07512900  -0.37948000   0.28606800   0.10807800
     5     24    1   0.54525800   0.07512900   0.29355100   0.07687100
     5     25    1   0.54525800   0.54525800   0.33996700   0.17991200
     5     27    1   0.54525800  -0.16659900   0.33996700   0.20291800
     6     22    1  -0.51841900   0.24821000   0.20145000   0.12012200
     6     23    1  -0.51841900   0.03076400   0.31798000   0.31708800
     7     21    1  -0.16659900  -0.37948000   0.33248300   0.28529500
     3     15    1   0.00000000   0.00000000   0.00000000   0.00000000
     3     21    1   0.00000000   0.00000000   0.00000000   0.00000000
     5     16    1   0.00000000   0.00000000   0.00000000   0.00000000
     5     21    1   0.00000000   0.00000000   0.00000000   0.00000000
     5     22    1   0.00000000   0.00000000   0.00000000   0.00000000
     5     23    1   0.00000000   0.00000000   0.00000000   0.00000000
     6     15    1   0.00000000   0.00000000   0.00000000   0.00000000
     6     21    1   0.00000000   0.00000000   0.00000000   0.00000000
    11     22    1   0.00000000   0.00000000   0.00000000   0.00000000
    11     23    1   0.00000000   0.00000000   0.00000000   0.00000000
    12     21    1   0.00000000   0.00000000   0.00000000   0.00000000
#endif
#ifdef STAGE2
     1     21    1  -0.37948000  -0.37948000   0.32500000   0.35564000
     3     22    1   0.03076400   0.24821000   0.22343700   0.08670000
     3     23    1   0.03076400   0.03076400   0.33996700   0.22886500
     4     21    1   0.07512900  -0.37948000   0.28606800   0.10807800
     5     24    1   0.54525800   0.07512900   0.29355100   0.07687100
     5     25    1   0.54525800   0.54525800   0.33996700   0.17991200
     5     27    1   0.54525800  -0.16659900   0.33996700   0.20291800
     6     22    1  -0.51841900   0.24821000   0.20145000   0.12012200
     6     23    1  -0.51841900   0.03076400   0.31798000   0.31708800
     7     21    1  -0.16659900  -0.37948000   0.33248300   0.28529500
     3     15    1   0.00000000   0.00000000   0.00000000   0.00000000
     3     21    1   0.00000000   0.00000000   0.00000000   0.00000000
     5     16    1   0.00000000   0.00000000   0.00000000   0.00000000
     5     21    1   0.00000000   0.00000000   0.00000000   0.00000000
     5     22    1   0.00000000   0.00000000   0.00000000   0.00000000
     5     23    1   0.00000000   0.00000000   0.00000000   0.00000000
     6     15    1   0.00000000   0.00000000   0.00000000   0.00000000
     6     21    1   0.00000000   0.00000000   0.00000000   0.00000000
    11     22    1   0.00000000   0.00000000   0.00000000   0.00000000
    11     23    1   0.00000000   0.00000000   0.00000000   0.00000000
    12     21    1   0.00000000   0.00000000   0.00000000   0.00000000
#endif

#ifdef POSRES
#include "posre.itp"
#endif

[ moleculetype ]
; Name            nrexcl
HOH          3

[ atoms ]
;   nr       type  resnr residue  atom   cgnr    charge       mass  typeB    chargeB      massB
; residue    1 HOH rtp HOH q 0.0
     1         O2     1    HOH      O     1  -0.83400000  15.999430; qtot -0.834000
     2         H4     1    HOH     H1     2   0.41700000   1.007947; qtot -0.417000
     3         H4     1    HOH     H2     3   0.41700000   1.007947; qtot 0.000000

#ifdef FLEXIBLE

[ bonds ]
;    ai     aj funct         c0         c1         c2         c3
     1      2    1    0.095720   462750.400000
     1      3    1    0.095720   462750.400000

[ angles ]
;    ai     aj     ak funct         c0         c1         c2         c3
     2      1      3    1   104.5200000    836.800000


#else

[ settles ]
; i     funct   doh     dhh
1     1   0.09572000   0.15139007

#endif

[ exclusions ]
   1    2    3
   2    1    3
   3    1    2


[ moleculetype ]
; Name            nrexcl
NA          3

[ atoms ]
;   nr       type  resnr residue  atom   cgnr    charge       mass  typeB    chargeB      massB
; residue    1 NA rtp NA q 1.0
     1        Na1     1     NA     Na     1   1.00000000  22.989769; qtot 1.000000


[ moleculetype ]
; Name            nrexcl
CL          3

[ atoms ]
;   nr       type  resnr residue  atom   cgnr    charge       mass  typeB    chargeB      massB
; residue    1 CL rtp CL q -1.0
     1        Cl1     1     CL     Cl     1  -1.00000000  35.453200; qtot -1.000000

[ system ]
; Name
Generic title

[ molecules ]
; Compound       #mols
system1              1
HOH               7031
NA                  26
CL                  26
